,formula,thickness,density,height,transmission,mu_per_cm,transmission (2.53 Å),mu_per_cm (2.53 Å)
0,Ni8740Co72Cr3576Al190Mo301Ti419Nb523Fe3290,5.0006397,8.2006,0.0,45.336799156054084,1.5818998914692268,47.085119,1.5062336518367716
1,Ni8692Co73Cr3565Al191Mo302Ti232Nb594Fe3264,5.000639699999985,8.2006,0.065,45.494364298283365,1.5749619579248177,47.229359,1.5001170231369496
2,Ni8790Co42Cr3597Al197Mo304Ti219Nb602Fe3193,5.000639699999987,8.2006,0.1299,45.630172804934475,1.5690012699086553,47.349532,1.495035225690362
3,Ni8819Co38Cr3744Al192Mo294Ti215Nb539Fe3222,5.000639700000624,8.2006,0.1949,45.591688883098804,1.5706885409377147,47.313267,1.4965674162869582
4,Ni8828Co39Cr3580Al196Mo304Ti203Nb542Fe3226,5.000639700001359,8.2006,0.2599,45.46437884173156,1.5762804291676906,47.181151,1.5021592464969133
5,Ni8849Co38Cr3590Al203Mo300Ti213Nb550Fe3223,5.0006396999671,8.2006,0.3249,45.480428717729794,1.575574602273705,47.197321,1.5014740083892084
6,Ni8784Co43Cr3609Al195Mo304Ti212Nb549Fe3227,5.000639699890406,8.2006,0.3898,45.51749456942889,1.5739455052454367,47.237929,1.4997541926535838
7,Ni8785Co34Cr3576Al192Mo313Ti235Nb597Fe3159,5.000639701701987,8.2006,0.4548,45.65681900132731,1.5678338395827227,47.373371,1.4940286702652845
8,Ni8894Co29Cr3514Al202Mo305Ti212Nb539Fe3167,5.0006397079272915,8.2006,0.5198,45.398743822581054,1.579169459415115,47.10944,1.5052009830390003
9,Ni8851Co26Cr3546Al201Mo307Ti200Nb566Fe3158,5.00063961392755,8.2006,0.5848,45.5390221820219,1.572999971885734,47.248233,1.499318062203148
10,Ni8852Co28Cr3658Al198Mo309Ti199Nb539Fe3176,5.000639175823636,8.2006,0.6497,45.57081312974607,1.5716045683504218,47.284252,1.4977942984507544
11,Ni8907Co27Cr3747Al199Mo307Ti184Nb490Fe3232,5.000643950573824,8.2006,0.7147,45.50807887051457,1.574357874666528,47.222178,1.5004198225007062
12,Ni8884Co16Cr3762Al201Mo311Ti202Nb584Fe3160,5.0006730826364105,8.2006,0.7797,45.81669953625252,1.5608329713451796,47.526176,1.487578853397952
13,Ni8862Co21Cr3777Al198Mo301Ti199Nb542Fe3167,5.000436177824972,8.2006,0.8446,45.69627593975981,1.5661701356463789,47.409305,1.492573131611729
14,Ni8872Co20Cr3693Al201Mo309Ti209Nb528Fe3174,4.998609855664826,8.2006,0.9096,45.62221442745397,1.5699873609954966,47.333369,1.4963253487096122
15,Ni8907Co20Cr3793Al200Mo303Ti211Nb530Fe3174,5.0099086672758215,8.2006,0.9746,45.59819306737569,1.5674978290479096,47.311941,1.4938545183631462
16,Ni8867Co24Cr3822Al203Mo321Ti212Nb578Fe3150,4.720583505481592,8.2006,1.0395,47.87953881359711,1.5601502157940512,49.586489,1.4859429723965774
17,Ni8899Co20Cr3907Al196Mo305Ti207Nb497Fe3217,4.2548004960840835,8.2006,1.1045,51.322111172658026,1.567755081056231,53.001967,1.4920585830084818
18,Ni8932Co14Cr3833Al198Mo302Ti209Nb522Fe3189,3.668553101755313,8.2006,1.1695,56.22244392245938,1.5697037354706336,57.833969,1.4926699131415446
19,Ni8884Co16Cr3775Al204Mo310Ti190Nb498Fe3179,2.944595227620785,8.2006,1.2345,62.89675049146003,1.5746669721184914,64.378347,1.49559719445231
20,Ni8876Co17Cr3691Al196Mo307Ti193Nb528Fe3169,2.5307754873982766,8.2006,1.2994,67.09888568677054,1.5766027088917105,68.473709,1.4964595891602424
21,Ni8815Co14Cr3686Al221Mo328Ti221Nb614Fe3102,2.2281076104801447,8.2006,1.3644,70.58463881123409,1.56346867674553,71.859852,1.4831081870138443
22,Ni8900Co19Cr3595Al196Mo311Ti202Nb554Fe3155,2.114118263975878,8.2006,1.4294,71.60780068709488,1.5796948330792941,72.849289,1.4983902205127044
23,Ni8917Co15Cr3655Al196Mo304Ti193Nb470Fe3206,1.9851648272647973,8.2006,1.4944,72.9832772750218,1.5864670035508335,74.18027,1.5045197760716646
24,Ni8884Co14Cr3797Al201Mo296Ti188Nb489Fe3221,1.9078724411358208,8.2006,1.5593,73.99940357847906,1.5782666916003132,75.165166,1.4963384043960832
25,Ni8865Co15Cr3877Al198Mo309Ti189Nb516Fe3190,1.9111457404188492,8.2006,1.6243,74.06413691381496,1.5709882651187799,75.230117,1.4892560895129168
26,Ni8898Co15Cr3870Al198Mo305Ti202Nb552Fe3171,1.8713338434438873,8.2006,1.6893,74.55461653472774,1.5691386247030343,75.703924,1.487389284748833
27,Ni8866Co13Cr3907Al199Mo306Ti208Nb531Fe3196,1.8687583399253036,8.2006,1.7542,74.59999464209515,1.5680451791956806,75.74849,1.486289959791157
28,Ni8868Co14Cr3846Al206Mo301Ti194Nb529Fe3188,1.8580464008666275,8.2006,1.8192,74.67914379840572,1.5713780462233866,75.823196,1.489553351266343
29,Ni8951Co15Cr3907Al195Mo295Ti199Nb491Fe3188,1.948906115572429,8.2006,1.8842,73.54763089709844,1.5764584439698608,74.731521,1.494521530072209
30,Ni8878Co12Cr3836Al200Mo311Ti192Nb512Fe3176,1.942171108956416,8.2006,1.9492,73.68295247302589,1.572460438057898,74.859937,1.4908641352340948
31,Ni8874Co14Cr3860Al202Mo307Ti205Nb547Fe3160,1.940284135985127,8.2006,2.0141,73.75949063030296,1.5686388755657572,74.935686,1.4871015795110993
32,Ni8937Co11Cr3819Al198Mo306Ti197Nb542Fe3160,1.9159114575256475,8.2006,2.0791,73.98986770529048,1.572317049814215,75.15536,1.490740854396148
33,Ni8867Co14Cr3892Al198Mo308Ti195Nb554Fe3162,1.9184319575276272,8.2006,2.1441,74.0421387423308,1.5665700897630084,75.208969,1.485065406720891
34,Ni8918Co12Cr3884Al201Mo321Ti210Nb579Fe3126,1.8930226750807615,8.2006,2.209,74.36932465515814,1.564305785078569,75.524617,1.4828746300396287
35,Ni8856Co12Cr3873Al204Mo303Ti198Nb550Fe3172,1.9483442609615462,8.2006,2.274,73.68947437632934,1.5670239610919963,74.867216,1.4856414273884897
36,Ni8898Co13Cr3884Al195Mo318Ti193Nb514Fe3192,1.9376255764423407,8.2006,2.339,73.76320689928623,1.5705311382125378,74.938758,1.4889304183742536
37,Ni8950Co20Cr3867Al196Mo301Ti189Nb486Fe3202,1.989550440654185,8.2006,2.404,73.0429267339295,1.5788636155994986,74.24393,1.4968917419901702
38,Ni8847Co14Cr3865Al195Mo309Ti227Nb532Fe3166,1.98848544718303,8.2006,2.4689,73.199853351856,1.568916528178452,74.396399,1.4873764667325722
39,Ni8789Co15Cr3749Al231Mo306Ti368Nb520Fe3138,1.99165209223247,8.2006,2.5339,73.12071702813942,1.5718531059098757,74.326399,1.489738070721583
40,Ni8923Co13Cr3801Al198Mo311Ti205Nb553Fe3160,1.9923184508213012,8.2006,2.5989,73.123275007096,1.5711517916818087,74.318458,1.4897760932327453
41,Ni8910Co10Cr3836Al192Mo304Ti196Nb503Fe3194,1.9697467114115148,8.2006,2.6639,73.33296954832205,1.5746181335090714,74.520718,1.4930498606750187
42,Ni8962Co11Cr3897Al199Mo299Ti182Nb454Fe3244,1.934865984768194,8.2006,2.7288,73.67217654198312,1.579153200548323,74.849219,1.497232943569134
43,Ni8910Co13Cr3813Al197Mo310Ti192Nb542Fe3167,1.9298535627638855,8.2006,2.7938,73.83600373890458,1.5717447357475385,75.007212,1.4901955393080932
44,Ni8661Co12Cr3767Al390Mo302Ti364Nb564Fe3094,1.9674378030837745,8.2006,2.8588,73.60779080554084,1.5574536182993617,74.797276,1.4759740731215047
45,Ni8846Co11Cr3818Al195Mo307Ti218Nb640Fe3098,1.9716977147511023,8.2006,2.9237,73.52718498997658,1.5596456903216125,74.709639,1.478731064340631
46,Ni8867Co12Cr3738Al198Mo317Ti212Nb608Fe3104,2.0213933215202893,8.2006,2.9887,72.87046712867024,1.5656861063025964,74.072927,1.4847188564198843
47,Ni8803Co12Cr3494Al195Mo311Ti213Nb649Fe3087,2.025991758995845,8.2006,3.0537,72.75753927409451,1.5697874942492827,73.958341,1.4889903151139765
48,Ni8921Co11Cr3570Al196Mo307Ti191Nb509Fe3168,2.030666165536484,8.2006,3.1187,72.48254411467683,1.5848219141644733,73.692053,1.5033254939900615
49,Ni8933Co11Cr3699Al197Mo300Ti203Nb495Fe3181,2.032907466155133,8.2006,3.1836,72.49843454226975,1.5819963389148146,73.710998,1.5004036160512757
50,Ni8831Co12Cr3746Al197Mo302Ti207Nb564Fe3139,2.0341081580397242,8.2006,3.2486,72.66017852054443,1.5701067861390987,73.869769,1.4889401056205882
51,Ni8931Co12Cr3895Al201Mo307Ti211Nb521Fe3173,1.9808863158372416,8.2006,3.3136,73.25639595299187,1.5710372808894564,74.449368,1.4894893939844072
52,Ni8925Co11Cr3886Al199Mo306Ti196Nb486Fe3210,2.0061887158014486,8.2006,3.3785,72.91587715768605,1.5744469826840086,74.118775,1.492887033017553
53,Ni8873Co11Cr3907Al205Mo304Ti202Nb546Fe3180,2.0255099452964274,8.2006,3.4435,72.81932093014382,1.56597043298449,74.026287,1.4848109081455065
54,Ni8869Co13Cr3849Al200Mo304Ti192Nb510Fe3183,1.94587644689647,8.2006,3.5085,73.63571389070263,1.5727619055851432,74.814932,1.4911157166455005
55,Ni8563Co8Cr3730Al397Mo301Ti338Nb563Fe3048,2.012591157400653,8.2006,3.5735,73.12562987942717,1.5551656658456863,74.328651,1.4740882425154724
56,Ni8953Co11Cr3873Al201Mo312Ti179Nb472Fe3236,2.023377563148417,8.2006,3.6384,72.69039256623924,1.5763788615716743,73.899146,1.4948713466360135
57,Ni8892Co10Cr3870Al205Mo317Ti207Nb510Fe3171,2.0322188463035054,8.2006,3.7034,72.67974767835815,1.5702413877607373,73.890649,1.4889336473280195
58,Ni8962Co9Cr3883Al201Mo306Ti191Nb512Fe3206,2.0344076051231905,8.2006,3.7684,72.62277698919381,1.5724065321130112,73.833579,1.491129688558194
59,Ni8976Co7Cr3835Al198Mo306Ti197Nb543Fe3171,2.0358078970043394,8.2006,3.8333,72.62182963778494,1.5713890593916975,73.830973,1.4902774202111042
60,Ni8929Co11Cr3846Al194Mo301Ti184Nb489Fe3212,2.03310657603755,8.2006,3.8983,72.5777147189082,1.5764656651618412,73.789913,1.494993659075377
61,Ni8955Co14Cr3827Al199Mo305Ti192Nb518Fe3196,2.020858877979765,8.2006,3.9633,72.73607842752429,1.575234488356284,73.943907,1.4937381181050715
62,Ni8960Co12Cr3791Al202Mo300Ti196Nb496Fe3207,1.9786330290798555,8.2006,4.0283,73.16631370061292,1.5790450361344421,74.358783,1.4973387446814042
63,Ni8955Co201Cr3772Al236Mo389Ti257Nb485Fe2871,2.0414491017654126,8.21472,4.0932,71.82507584346183,1.6210863395474937,73.136237,1.5324713390857188
64,Ni8892Co199Cr3761Al234Mo385Ti262Nb481Fe2889,2.0058504618021207,8.21472,4.1582,72.2549893426814,1.62010484291924,73.55183,1.5314195353370548
65,Ni8849Co187Cr3795Al229Mo369Ti244Nb469Fe2916,2.038054989529128,8.21472,4.2232,71.91673278299182,1.6175286095832937,73.22085,1.529350145676664
66,Ni8888Co175Cr3784Al238Mo372Ti239Nb462Fe2939,2.036623389675589,8.21472,4.2882,71.9537082128543,1.6161417810688765,73.251157,1.5283932442875334
67,Ni8986Co280Cr3804Al246Mo398Ti251Nb377Fe2864,2.0370087662337486,8.21472,4.3531,71.4564737839074,1.6498784172887573,72.808455,1.5578631897889763
68,Ni8882Co359Cr3765Al269Mo449Ti290Nb426Fe2660,2.014969102303957,8.21472,4.4181,71.5992380816749,1.65801923718582,72.977957,1.5633626787745138
69,Ni8879Co350Cr3715Al259Mo446Ti284Nb471Fe2639,2.0032391963652163,8.21472,4.4831,71.7962805985851,1.6540087380728699,73.163765,1.5598232193574262
70,Ni8799Co303Cr3704Al271Mo428Ti280Nb509Fe2704,2.0268400168285736,8.21472,4.548,71.75429730600504,1.6376351247228884,73.107118,1.5454818728217736
71,Ni8835Co290Cr3825Al252Mo409Ti285Nb479Fe2750,2.0242661889525424,8.21472,4.613,71.81079202466833,1.6358293997388333,73.158984,1.5439434380600208
72,Ni8833Co332Cr3822Al253Mo423Ti287Nb436Fe2716,2.0197718790615875,8.21472,4.678,71.66601344348756,1.649461331578195,73.034374,1.555819160632245
73,Ni8900Co404Cr3868Al265Mo444Ti280Nb366Fe2651,2.013146194619055,8.21472,4.7429,71.41687096034507,1.6721888231164566,72.818538,1.5756412584050856
74,Ni8869Co394Cr3721Al271Mo442Ti281Nb382Fe2637,1.9745534585824147,8.21472,4.8079,71.85134080677788,1.67415529322085,73.232635,1.577718899873689
75,Ni8840Co365Cr3937Al258Mo438Ti282Nb427Fe2677,1.9181406442872857,8.21472,4.8729,72.83415593396609,1.6525647732898805,74.174693,1.5574830738836525
76,Ni8847Co357Cr3955Al262Mo407Ti302Nb386Fe2680,1.9900478316946844,8.21472,4.9379,71.90342611371243,1.6574791120509331,73.275757,1.562476858833281
77,Ni8836Co375Cr3912Al264Mo449Ti290Nb421Fe2660,1.9397500675715142,8.21472,5.0028,72.53725644997044,1.6552125937185487,73.891941,1.5598216585368687
78,Ni8840Co422Cr3881Al265Mo452Ti304Nb416Fe2580,1.9836771361540273,8.21472,5.0678,71.81991825953652,1.6686603343228694,73.216246,1.5715906791140353
79,Ni8852Co419Cr3926Al276Mo468Ti304Nb429Fe2555,1.992874470030713,8.21472,5.1328,71.7907474443647,1.6629977898711903,73.18788,1.5662820573709124
80,Ni8809Co409Cr3920Al273Mo460Ti319Nb466Fe2559,1.995457640959484,8.21472,5.1978,71.85362772572881,1.6564575347792867,73.246271,1.5602578618851985
81,Ni8842Co395Cr3917Al271Mo451Ti291Nb441Fe2594,1.9971870285320177,8.21472,5.2627,71.81384551985629,1.6577961365444864,73.20114,1.5619928775568976
82,Ni8916Co399Cr4016Al267Mo444Ti287Nb388Fe2625,2.0066646919162756,8.21472,5.3277,71.63009647429074,1.662733489380515,73.025445,1.5665907971359179
83,Ni8864Co429Cr3989Al275Mo466Ti300Nb412Fe2548,2.027465845773373,8.21472,5.3927,71.34936907277553,1.6650425234842592,72.76612,1.5680645096371315
84,Ni8867Co448Cr3849Al283Mo483Ti314Nb428Fe2518,2.0458106451483515,8.21472,5.4576,71.03202685555581,1.6719012045050248,72.464298,1.5743206125144267
85,Ni8843Co428Cr3803Al269Mo464Ti302Nb413Fe2567,2.0215067422550574,8.21472,5.5226,71.31256135715293,1.672503439640868,72.727269,1.5753288164316985
86,Ni8873Co440Cr3785Al277Mo471Ti306Nb394Fe2557,2.024188822284717,8.21472,5.5876,71.20057482586361,1.6780514271509652,72.62269,1.580350484248436
87,Ni8889Co453Cr3914Al282Mo468Ti294Nb361Fe2563,2.0638321034749856,8.21472,5.6526,70.70718008257343,1.6795119167915329,72.152145,1.5814909116436149
88,Ni8803Co425Cr3804Al278Mo475Ti329Nb439Fe2531,2.0409730219761375,8.21472,5.7175,71.16877992789253,1.666440194108753,72.589799,1.5695738269065869
89,Ni8851Co427Cr3813Al277Mo472Ti319Nb423Fe2551,2.0260280893029723,8.21472,5.7825,71.29819444617168,1.669765508238684,72.714,1.5727138703358674
90,Ni8870Co435Cr3558Al273Mo471Ti317Nb425Fe2524,2.0685690058788193,8.21472,5.8475,70.5880474176349,1.683817918886812,72.026097,1.586322106626784
91,Ni8839Co464Cr3668Al284Mo480Ti327Nb408Fe2488,2.0592923626971054,8.21472,5.9124,70.66788992219513,1.6859135507090295,72.11658,1.5873715440497813
92,Ni8910Co448Cr3614Al276Mo446Ti292Nb355Fe2569,2.052362095497056,8.21472,5.9774,70.60639053754586,1.695848548460392,72.047265,1.5974170675463717
93,Ni8665Co421Cr3504Al274Mo503Ti399Nb624Fe2383,2.078608725899847,8.21472,6.0424,70.92992117046204,1.6524409710486494,72.358479,1.5565100903843923
94,Ni8758Co437Cr3535Al285Mo493Ti346Nb495Fe2464,2.0610679193021615,8.21472,6.1074,70.84764700351094,1.672135246659925,72.280852,1.574964753953185
95,Ni8877Co450Cr3866Al280Mo444Ti306Nb387Fe2540,2.032897788204273,8.21472,6.1723,71.05671870725284,1.68081137582289,72.488602,1.5826710626910268
96,Ni8937Co441Cr3959Al277Mo447Ti279Nb333Fe2593,2.0924652598402407,8.21472,6.2373,70.34290715111707,1.6812141953485518,71.79528,1.583545765924061
97,Ni8822Co399Cr3997Al269Mo456Ti305Nb452Fe2560,2.090867526613247,8.21472,6.3023,70.77754672116392,1.6530381188399093,72.204716,1.5575583795613526
98,Ni8834Co422Cr3951Al281Mo459Ti329Nb465Fe2514,2.088685669701465,8.21472,6.3673,70.71659356660943,1.6588898068195366,72.153936,1.562553686157419
99,Ni8849Co429Cr3976Al274Mo457Ti304Nb416Fe2559,2.053986654144127,8.21472,6.4322,71.02834317040104,1.6654985967528724,72.456249,1.5685947506177964
100,Ni8932Co442Cr3963Al273Mo453Ti292Nb382Fe2571,2.0609162891716855,8.21472,6.4972,70.80234212413087,1.6753621037419382,72.239937,1.5778280305769177
101,Ni8901Co455Cr3840Al286Mo470Ti299Nb385Fe2523,2.0506237261857785,8.21472,6.5622,70.84149909497056,1.6810749197589312,72.281441,1.582946593073687
102,Ni8716Co436Cr3645Al275Mo499Ti378Nb606Fe2371,2.095838209615911,8.21472,6.6271,70.70677932660011,1.6538906841936816,72.148763,1.5575631947857032
103,Ni8935Co443Cr3876Al279Mo454Ti268Nb316Fe2610,2.091804052859338,8.21472,6.6921,70.27601508576731,1.6862938205830917,71.729341,1.5884389489907176
104,Ni8752Co435Cr3869Al278Mo489Ti347Nb493Fe2493,2.093360253717183,8.21472,6.7571,70.68762489904356,1.6571426947604209,72.131394,1.5605570654292202
105,Ni8800Co438Cr3877Al285Mo501Ti343Nb486Fe2466,2.0704400991244887,8.21472,6.822,70.93721955987048,1.6584634919233698,72.372827,1.56169345281718
106,Ni8847Co456Cr3820Al284Mo475Ti299Nb393Fe2525,2.0615622958281743,8.21472,6.887,70.73588339858294,1.6793923618458084,72.180461,1.581328881706832
107,Ni8864Co456Cr3865Al284Mo469Ti310Nb397Fe2543,2.071025435254569,8.21472,6.952,70.65003247714898,1.6775825697391302,72.098171,1.5796112592108944
108,Ni8787Co444Cr3769Al272Mo486Ti326Nb477Fe2471,2.060137746130559,8.21472,7.017,70.92623789631561,1.6675086532172367,72.361765,1.5702451665517496
109,Ni8917Co449Cr3855Al293Mo471Ti319Nb390Fe2518,2.088340845595014,8.21472,7.0819,70.43614537676545,1.6781916930633693,71.888828,1.5804379658906693
110,Ni8874Co432Cr3896Al278Mo452Ti327Nb393Fe2551,2.088193519495985,8.21472,7.1469,70.51261258943487,1.6731140429812597,71.95865,1.575900578331565
111,Ni8874Co425Cr3775Al271Mo468Ti322Nb446Fe2531,2.043330507961851,8.21472,7.2119,71.09210565835082,1.6697929460848666,72.513344,1.5729202135375946
112,Ni8822Co424Cr3818Al276Mo477Ti332Nb483Fe2516,2.060008891215733,8.21472,7.2769,71.02218496381818,1.6610505660123802,72.447571,1.5645905497197337
113,Ni8864Co432Cr3992Al275Mo450Ti286Nb361Fe2574,2.072924735022566,8.21472,7.3418,70.69876539449122,1.6727190812832895,72.138517,1.5754651505484525
114,Ni8721Co430Cr3861Al514Mo453Ti341Nb450Fe2487,2.0076129579099504,8.21472,7.4068,71.7088717956748,1.6564732249816467,73.115971,1.5596799190308364
115,Ni8835Co439Cr3966Al275Mo473Ti295Nb388Fe2551,1.9829195694337527,8.21472,7.4718,71.81329253095754,1.6697631080431217,73.217228,1.5721234604098335
116,Ni8806Co482Cr3827Al286Mo501Ti361Nb469Fe2397,2.0128392231420364,8.22884,7.5367,71.35393366298955,1.6768239995399001,72.790216,1.5778142226679697
117,Ni8856Co640Cr3916Al317Mo538Ti362Nb338Fe2246,2.0208347573228083,8.22884,7.6017,70.60115974846698,1.7226723428535018,72.117229,1.6175355717777122
118,Ni8886Co662Cr3891Al319Mo542Ti345Nb304Fe2232,1.9820908113839482,8.22884,7.6667,70.91889299446244,1.733691070789603,72.429045,1.627386551410512
119,Ni8836Co668Cr3995Al359Mo555Ti383Nb333Fe2203,2.056728789046245,8.22884,7.7317,70.17068805424293,1.72234430288374,71.713667,1.6165906008108897
120,Ni8816Co710Cr3986Al324Mo586Ti414Nb347Fe2090,2.061114250246958,8.22884,7.7966,70.01380566538144,1.729538959574471,71.578336,1.6223153451940688
121,Ni8954Co712Cr4104Al335Mo532Ti339Nb271Fe2197,2.074659332302389,8.22884,7.8616,69.68171827249733,1.7411639040901785,71.252461,1.6337179883350437
122,Ni8870Co726Cr4028Al320Mo563Ti375Nb307Fe2123,2.0933856402301276,8.22884,7.9266,69.4771653772062,1.7396318964298425,71.062642,1.6318465631626036
123,Ni8824Co708Cr3993Al331Mo577Ti389Nb340Fe2121,2.053635433052874,8.22884,7.9915,70.09306332789595,1.730328300133326,71.65258,1.6231752657900973
124,Ni8803Co712Cr3927Al327Mo573Ti402Nb360Fe2105,2.0967806595097835,8.22884,8.0565,69.5468912537818,1.7320312688648476,71.126837,1.6248979813976754
125,Ni8949Co738Cr4064Al326Mo545Ti346Nb275Fe2164,2.109472537304583,8.22884,8.1215,69.16830950052409,1.74748605129381,70.7648,1.6393125672262303
126,Ni8731Co724Cr3789Al331Mo615Ti442Nb459Fe1989,2.1207725861699775,8.22884,8.1865,69.37125169976612,1.724360486922817,70.963143,1.617380187981049
127,Ni8886Co751Cr3868Al330Mo559Ti372Nb292Fe2107,2.0811844096655476,8.22884,8.2514,69.39380315698835,1.7555994194999551,70.987147,1.6465208556815738
128,Ni8879Co747Cr3814Al338Mo576Ti402Nb346Fe2071,2.1286587251783367,8.22884,8.3164,68.9244541602718,1.748326981851327,70.5332,1.639937209774036
129,Ni8870Co753Cr3892Al339Mo579Ti375Nb282Fe2086,2.0876052759274475,8.22884,8.3814,69.34750507593483,1.7533966786199582,70.944471,1.6443372580790345
130,Ni8734Co776Cr3642Al340Mo625Ti453Nb382Fe1956,2.1297265298736177,8.22884,8.4464,68.86480842327303,1.7515154941605922,70.489651,1.642014955282561
131,Ni8877Co793Cr3996Al351Mo595Ti400Nb297Fe2023,2.083515128601571,8.22884,8.5113,69.38429872593841,1.7542929359941644,70.994845,1.644158530523459
132,Ni8858Co781Cr3965Al349Mo611Ti412Nb329Fe2004,2.1227623641488216,8.22884,8.5763,69.01444083037597,1.7470368900210584,70.634775,1.6377132216521795
133,Ni8768Co760Cr3875Al327Mo602Ti420Nb370Fe2005,2.125109357861074,8.22884,8.6413,69.06674280721141,1.7415426668817138,70.680177,1.6328808351044592
134,Ni8842Co788Cr3951Al331Mo586Ti404Nb328Fe2012,2.1292489352041937,8.22884,8.7062,68.8544425643928,1.7526153539947342,70.482158,1.6428825227058337
135,Ni8785Co793Cr4027Al338Mo600Ti414Nb307Fe1983,2.086990035874245,8.22884,8.7712,69.40116924860527,1.7502070655628932,71.015433,1.6400316268248154
136,Ni8919Co825Cr4044Al358Mo607Ti396Nb257Fe1975,2.1117379426248037,8.22884,8.8362,68.9005876818394,1.7639758750186534,70.537847,1.6527656026390498