,formula,thickness,density,transmission,mu_per_cm,height_mm,height
0,Ni8740Co72Cr3576Al190Mo301Ti419Nb523Fe3290,2.7328,8.19,80.46779039825897,0.7952034576585784,0.0,0.0
1,Ni8692Co73Cr3565Al191Mo302Ti232Nb594Fe3264,2.7328004306163445,8.19,80.5470199523692,0.7916021633782037,0.065,0.065
2,Ni8790Co42Cr3597Al197Mo304Ti219Nb602Fe3193,2.7328003571186805,8.19,80.61577267534517,0.7884800816058447,0.1299,0.1299
3,Ni8819Co38Cr3744Al192Mo294Ti215Nb539Fe3222,2.7327815828944177,8.19,80.5968026535342,0.7893466785767669,0.1949,0.1949
4,Ni8828Co39Cr3580Al196Mo304Ti203Nb542Fe3226,2.7327598281920227,8.19,80.53549872618831,0.792137379097548,0.2599,0.2599
5,Ni8849Co38Cr3590Al203Mo300Ti213Nb550Fe3223,2.733771571941027,8.19,80.53688914459656,0.7917810635913105,0.3249,0.3249
6,Ni8784Co43Cr3609Al195Mo304Ti212Nb549Fe3227,2.7361277207629193,8.19,80.53948162542058,0.7909815948313598,0.3898,0.3898
7,Ni8785Co34Cr3576Al192Mo313Ti235Nb597Fe3159,2.8040174804417566,8.19,80.17919702764023,0.787819958278838,0.4548,0.4548
8,Ni8894Co29Cr3514Al202Mo305Ti212Nb539Fe3167,2.8685248803586347,8.19,79.64388548378722,0.7934563212154463,0.5198,0.5198
9,Ni8851Co26Cr3546Al201Mo307Ti200Nb566Fe3158,2.93140473063661,8.19,79.32117474402436,0.7902868881874334,0.5848,0.5848
10,Ni8852Co28Cr3658Al198Mo309Ti199Nb539Fe3176,2.9858722953143086,8.19,78.99733416514603,0.7895718755466957,0.6497,0.6497
11,Ni8907Co27Cr3747Al199Mo307Ti184Nb490Fe3232,2.913830132311123,8.19,79.41452693315419,0.7910168580461197,0.7147,0.7147
12,Ni8884Co16Cr3762Al201Mo311Ti202Nb584Fe3160,2.85005095577812,8.19,79.97132083301433,0.7842038919380071,0.7797,0.7797
13,Ni8862Co21Cr3777Al198Mo301Ti199Nb542Fe3167,2.7826062581989843,8.19,80.33357135222565,0.7869693300441798,0.8446,0.8446
14,Ni8872Co20Cr3693Al201Mo309Ti209Nb528Fe3174,2.78524617460879,8.19,80.27415984431777,0.7888796833816775,0.9096,0.9096
15,Ni8907Co20Cr3793Al200Mo303Ti211Nb530Fe3174,2.8563340516386675,8.19,79.85435281204312,0.7876032578281117,0.9746,0.9746
16,Ni8867Co24Cr3822Al203Mo321Ti212Nb578Fe3150,2.8599847538059833,8.19,79.9244684615356,0.7835291472505489,1.0395,1.0395
17,Ni8899Co20Cr3907Al196Mo305Ti207Nb497Fe3217,2.8609614310265297,8.19,79.84483009112168,0.7867462183882403,1.1045,1.1045
18,Ni8932Co14Cr3833Al198Mo302Ti209Nb522Fe3189,2.860917721723451,8.19,79.84125089342254,0.7869149290641205,1.1695,1.1695
19,Ni8884Co16Cr3775Al204Mo310Ti190Nb498Fe3179,2.8608992564863973,8.19,79.80695060272967,0.7884219779116759,1.2345,1.2345
20,Ni8876Co17Cr3691Al196Mo307Ti193Nb528Fe3169,2.860899953235104,8.19,79.79787841545927,0.7888191542769558,1.2994,1.2994
21,Ni8815Co14Cr3686Al221Mo328Ti221Nb614Fe3102,2.8608996811058893,8.19,79.95770624998072,0.7818252574981532,1.3644,1.3644
22,Ni8900Co19Cr3595Al196Mo311Ti202Nb554Fe3155,2.8608838201659785,8.19,79.77587391901334,0.7897876086161462,1.4294,1.4294
23,Ni8917Co15Cr3655Al196Mo304Ti193Nb470Fe3206,2.860900917160521,8.19,79.70259055967968,0.7929952955510405,1.4944,1.4944
24,Ni8884Co14Cr3797Al201Mo296Ti188Nb489Fe3221,2.8617845664993613,8.19,79.79303908899827,0.7887872394054435,1.5593,1.5593
25,Ni8865Co15Cr3877Al198Mo309Ti189Nb516Fe3190,2.861769059756877,8.19,79.87613908588995,0.7851542449583767,1.6243,1.6243
26,Ni8898Co15Cr3870Al198Mo305Ti202Nb552Fe3171,2.9305482307032915,8.19,79.46990859554288,0.7841254472619466,1.6893,1.6893
27,Ni8866Co13Cr3907Al199Mo306Ti208Nb531Fe3196,2.9429186545507946,8.19,79.40590605588395,0.7835671453893992,1.7542,1.7542
28,Ni8868Co14Cr3846Al206Mo301Ti194Nb529Fe3188,2.9221601289540207,8.19,79.49649567523498,0.785231591460608,1.8192,1.8192
29,Ni8951Co15Cr3907Al195Mo295Ti199Nb491Fe3188,2.9908007500760876,8.19,79.00721370981512,0.7878526341193536,1.8842,1.8842
30,Ni8878Co12Cr3836Al200Mo311Ti192Nb512Fe3176,2.988442617114459,8.19,79.0693758454259,0.7858425732784058,1.9492,1.9492
31,Ni8874Co14Cr3860Al202Mo307Ti205Nb547Fe3160,2.9890432347405484,8.19,79.11084932781758,0.7839303167410853,2.0141,2.0141
32,Ni8937Co11Cr3819Al198Mo306Ti197Nb542Fe3160,2.988046224680522,8.19,79.07441980837672,0.7857333401207185,2.0791,2.0791
33,Ni8867Co14Cr3892Al198Mo308Ti195Nb554Fe3162,2.9828131967003015,8.19,79.17453525404561,0.7828698883868178,2.1441,2.1441
34,Ni8918Co12Cr3884Al201Mo321Ti210Nb579Fe3126,2.9153861009110944,8.19,79.6195912826671,0.7817489481339892,2.209,2.209
35,Ni8856Co12Cr3873Al204Mo303Ti198Nb550Fe3172,2.8575691322545476,8.19,79.94655004488064,0.7832247924347419,2.274,2.274
36,Ni8898Co13Cr3884Al195Mo318Ti193Nb514Fe3192,2.861128521920812,8.19,79.8845456223066,0.7849621983128404,2.339,2.339
37,Ni8950Co20Cr3867Al196Mo301Ti189Nb486Fe3202,2.858941367635229,8.19,79.80135522641211,0.7892071570395454,2.404,2.404
38,Ni8847Co14Cr3865Al195Mo309Ti227Nb532Fe3166,2.893896286244345,8.19,79.69679098071443,0.7842052454032675,2.4689,2.4689
39,Ni8789Co15Cr3749Al231Mo306Ti368Nb520Fe3138,2.949629372647345,8.19,79.31546524438878,0.7856480428125185,2.5339,2.5339
40,Ni8923Co13Cr3801Al198Mo311Ti205Nb553Fe3160,2.9461124482152528,8.19,79.3458236225152,0.7852869733380831,2.5989,2.5989
41,Ni8910Co10Cr3836Al192Mo304Ti196Nb503Fe3194,2.946946632412132,8.19,79.30085775652104,0.7869882618613205,2.6639,2.6639
42,Ni8962Co11Cr3897Al199Mo299Ti182Nb454Fe3244,2.944695246698624,8.19,79.26303297790695,0.7892101331450999,2.7288,2.7288
43,Ni8910Co13Cr3813Al197Mo310Ti192Nb542Fe3167,3.010286746656316,8.19,78.94305393662918,0.785451518717491,2.7938,2.7938
44,Ni8661Co12Cr3767Al390Mo302Ti364Nb564Fe3094,3.0331830635380403,8.19,78.97107883769236,0.7783522664647659,2.8588,2.8588
45,Ni8846Co11Cr3818Al195Mo307Ti218Nb640Fe3098,2.983922101910161,8.19,79.24783959763883,0.7794775676315505,2.9237,2.9237
46,Ni8867Co12Cr3738Al198Mo317Ti212Nb608Fe3104,2.989164124005207,8.19,79.14247288097502,0.7825615921316998,2.9887,2.9887
47,Ni8803Co12Cr3494Al195Mo311Ti213Nb649Fe3087,2.9244086024335374,8.19,79.49580456469744,0.7846575827348097,3.0537,3.0537
48,Ni8921Co11Cr3570Al196Mo307Ti191Nb509Fe3168,2.860137934044979,8.19,79.72483791639182,0.7922310439316341,3.1187,3.1187
49,Ni8933Co11Cr3699Al197Mo300Ti203Nb495Fe3181,2.8617501630852535,8.19,79.74674968478764,0.7908244555258868,3.1836,3.1836
50,Ni8831Co12Cr3746Al197Mo302Ti207Nb564Fe3139,2.8609288440484546,8.19,79.88766111125375,0.7848806682282794,3.2486,3.2486
51,Ni8931Co12Cr3895Al201Mo307Ti211Nb521Fe3173,2.8608849885426704,8.19,79.87888870890578,0.7852765505906556,3.3136,3.3136
52,Ni8925Co11Cr3886Al199Mo306Ti196Nb486Fe3210,2.860899216738567,8.19,79.83906028742788,0.7870159238180877,3.3785,3.3785
53,Ni8873Co11Cr3907Al205Mo304Ti202Nb546Fe3180,2.860900261053996,8.19,79.93534579747141,0.7828027374670935,3.4435,3.4435
54,Ni8869Co13Cr3849Al200Mo304Ti192Nb510Fe3183,2.8609000188331146,8.19,79.86023023142276,0.7860889927603045,3.5085,3.5085
55,Ni8563Co8Cr3730Al397Mo301Ti338Nb563Fe3048,2.8608999955915624,8.19,80.05928575305357,0.7773873753082929,3.5735,3.5735
56,Ni8953Co11Cr3873Al201Mo312Ti179Nb472Fe3236,2.860899999583952,8.19,79.81648236583479,0.7880043236569237,3.6384,3.6384
57,Ni8892Co10Cr3870Al205Mo317Ti207Nb510Fe3171,2.860900000072978,8.19,79.88629791073167,0.7849482274642955,3.7034,3.7034
58,Ni8962Co9Cr3883Al201Mo306Ti191Nb512Fe3206,2.860900000008808,8.19,79.86153774031365,0.7860317700260331,3.7684,3.7684
59,Ni8976Co7Cr3835Al198Mo306Ti197Nb543Fe3171,2.860899999998874,8.19,79.87318373036203,0.7855220820336941,3.8333,3.8333
60,Ni8929Co11Cr3846Al194Mo301Ti184Nb489Fe3212,2.8609000000002354,8.19,79.81518718719433,0.7880610437660528,3.8983,3.8983
61,Ni8955Co14Cr3827Al199Mo305Ti192Nb518Fe3196,2.860899999998031,8.19,79.8296180556413,0.7874291195549307,3.9633,3.9633
62,Ni8960Co12Cr3791Al202Mo300Ti196Nb496Fe3207,2.8608999999752176,8.19,79.78747449263923,0.7892748963581813,4.0283,4.0283
63,Ni8955Co201Cr3772Al236Mo389Ti257Nb485Fe2871,2.860900000086522,8.2,79.31302355796093,0.8101221270392477,4.0932,4.0932
64,Ni8892Co199Cr3761Al234Mo385Ti262Nb481Fe2889,2.860900001436944,8.2,79.32551248046394,0.8095717707957767,4.1582,4.1582
65,Ni8849Co187Cr3795Al229Mo369Ti244Nb469Fe2916,2.8608999966502555,8.2,79.35370829249858,0.808329571161492,4.2232,4.2232
66,Ni8888Co175Cr3784Al238Mo372Ti239Nb462Fe2939,2.860899917996576,8.2,79.36972467131643,0.8076241687596846,4.2882,4.2882
67,Ni8986Co280Cr3804Al246Mo398Ti251Nb377Fe2864,2.860900105626655,8.2,78.98584182371849,0.8245711429761502,4.3531,4.3531
68,Ni8882Co359Cr3765Al269Mo449Ti290Nb426Fe2660,2.8609045709587018,8.2,78.89345264998234,0.8286607909820888,4.4181,4.4181
69,Ni8879Co350Cr3715Al259Mo446Ti284Nb471Fe2639,2.860898966309767,8.2,78.93948279926043,0.826623625582864,4.4831,4.4831
70,Ni8799Co303Cr3704Al271Mo428Ti280Nb509Fe2704,2.86064950371412,8.2,79.12599736016462,0.8184459523314965,4.548,4.548
71,Ni8835Co290Cr3825Al252Mo409Ti285Nb479Fe2750,2.8606985549626587,8.2,79.14635216043597,0.817532794546057,4.613,4.613
72,Ni8833Co332Cr3822Al253Mo423Ti287Nb436Fe2716,2.881723324943048,8.2,78.85529595929326,0.8243529411392724,4.678,4.678
73,Ni8900Co404Cr3868Al265Mo444Ti280Nb366Fe2651,2.949874499673593,8.2,78.15176347077485,0.8356883121550465,4.7429,4.7429
74,Ni8869Co394Cr3721Al271Mo442Ti281Nb382Fe2637,2.9920269086701565,8.2,77.85701881221378,0.8365437252377456,4.8079,4.8079
75,Ni8840Co365Cr3937Al258Mo438Ti282Nb427Fe2677,2.9893976798392687,8.2,78.12866582912541,0.8256283802054143,4.8729,4.8729
76,Ni8847Co357Cr3955Al262Mo407Ti302Nb386Fe2680,2.9847533930046066,8.2,78.09800207179626,0.8282282607205913,4.9379,4.9379
77,Ni8836Co375Cr3912Al264Mo449Ti290Nb421Fe2660,3.0366318449522263,8.2,77.79327803920506,0.8269529264084793,5.0028,5.0028
78,Ni8840Co422Cr3881Al265Mo452Ti304Nb416Fe2580,2.9970958144139535,8.2,77.8873438529964,0.8338295749306651,5.0678,5.0678
79,Ni8852Co419Cr3926Al276Mo468Ti304Nb429Fe2555,3.0431960481777716,8.2,77.65611567105489,0.8309680876433809,5.1328,5.1328
80,Ni8809Co409Cr3920Al273Mo460Ti319Nb466Fe2559,3.080356426300816,8.2,77.49559697716766,0.8276609234689261,5.1978,5.1978
81,Ni8842Co395Cr3917Al271Mo451Ti291Nb441Fe2594,3.027775308008616,8.2,77.81672412459861,0.8283765780124475,5.2627,5.2627
82,Ni8916Co399Cr4016Al267Mo444Ti287Nb388Fe2625,3.032156230230318,8.2,77.72985856055567,0.8308632644347397,5.3277,5.3277
83,Ni8864Co429Cr3989Al275Mo466Ti300Nb412Fe2548,3.0310598909294613,8.2,77.70827872706863,0.8320798533907996,5.3927,5.3927
84,Ni8867Co448Cr3849Al283Mo483Ti314Nb428Fe2518,3.0352310818642434,8.2,77.59947936001565,0.8355524217411713,5.4576,5.4576
85,Ni8843Co428Cr3803Al269Mo464Ti302Nb413Fe2567,2.9842407241548417,8.2,77.92402721575988,0.8358435765249242,5.5226,5.5226
86,Ni8873Co440Cr3785Al277Mo471Ti306Nb394Fe2557,2.990069199752874,8.2,77.82132438120372,0.8386250728829727,5.5876,5.5876
87,Ni8889Co453Cr3914Al282Mo468Ti294Nb361Fe2563,3.003468960937026,8.2,77.71503426578424,0.839434198976056,5.6526,5.6526
88,Ni8803Co425Cr3804Al278Mo475Ti329Nb439Fe2531,3.034804142328273,8.2,77.66710637679341,0.8327995737110415,5.7175,5.7175
89,Ni8851Co427Cr3813Al277Mo472Ti319Nb423Fe2551,2.9847619737669553,8.2,77.95227618487422,0.8344832603874561,5.7825,5.7825
90,Ni8870Co435Cr3558Al273Mo471Ti317Nb425Fe2524,2.989110439474435,8.2,77.75853116510805,0.8415945828891719,5.8475,5.8475
91,Ni8839Co464Cr3668Al284Mo480Ti327Nb408Fe2488,2.989079473745641,8.2,77.73424470464516,0.8426483742909574,5.9124,5.9124
92,Ni8910Co448Cr3614Al276Mo446Ti292Nb355Fe2569,2.988999488057428,8.2,77.62007877875558,0.8475881181362346,5.9774,5.9774
93,Ni8665Co421Cr3504Al274Mo503Ti399Nb624Fe2383,2.9889965145947235,8.2,78.12454793648455,0.8259155310347942,6.0424,6.0424
94,Ni8758Co437Cr3535Al285Mo493Ti346Nb495Fe2464,2.9889984698441654,8.2,77.89546282057206,0.8357397334465522,6.1074,6.1074
95,Ni8877Co450Cr3866Al280Mo444Ti306Nb387Fe2540,2.98910928763965,8.2,77.7948336144679,0.8400333973425934,6.1723,6.1723
96,Ni8937Co441Cr3959Al277Mo447Ti279Nb333Fe2593,2.9891981845992546,8.2,77.78685649043997,0.8403514697735278,6.2373,6.2373
97,Ni8822Co399Cr3997Al269Mo456Ti305Nb452Fe2560,2.983200221815574,8.2,78.15457846695186,0.8262319887368667,6.3023,6.3023
98,Ni8834Co422Cr3951Al281Mo459Ti329Nb465Fe2514,3.0305533272564897,8.2,77.7812151953564,0.8291232879115694,6.3673,6.3673
99,Ni8849Co429Cr3976Al274Mo457Ti304Nb416Fe2559,2.9837742865356343,8.2,78.00692892395733,0.8324105881809515,6.4322,6.4322
100,Ni8932Co442Cr3963Al273Mo453Ti292Nb382Fe2571,2.9843548905640374,8.2,77.88793556801507,0.8373639363482681,6.4972,6.4972
101,Ni8901Co455Cr3840Al286Mo470Ti299Nb385Fe2523,2.917601817072302,8.2,78.25793649448268,0.8402789422011342,6.5622,6.5622
102,Ni8716Co436Cr3645Al275Mo499Ti378Nb606Fe2371,2.857922664091324,8.2,78.95447709165143,0.8268199203776757,6.6271,6.6271
103,Ni8935Co443Cr3876Al279Mo454Ti268Nb316Fe2610,2.8614458461419705,8.2,78.56632446099414,0.8430249367037373,6.6921,6.6921
104,Ni8752Co435Cr3869Al278Mo489Ti347Nb493Fe2493,2.8609541975675676,8.2,78.89806573918145,0.8284420421149158,6.7571,6.7571
105,Ni8800Co438Cr3877Al285Mo501Ti343Nb486Fe2466,2.8609533892166406,8.2,78.88417568921935,0.8290576866868455,6.822,6.822
106,Ni8847Co456Cr3820Al284Mo475Ti299Nb393Fe2525,2.861471273377187,8.2,78.64497303197037,0.8395208312554667,6.887,6.887
107,Ni8864Co456Cr3865Al284Mo469Ti310Nb397Fe2543,2.858019695643775,8.2,78.6875859665061,0.8386393629274563,6.952,6.952
108,Ni8787Co444Cr3769Al272Mo486Ti326Nb477Fe2471,2.9181105692694973,8.2,78.40943577000465,0.8335047829437137,7.017,7.017
109,Ni8917Co449Cr3855Al293Mo471Ti319Nb390Fe2518,2.985025521800269,8.2,77.84922833164353,0.8388410691117498,7.0819,7.0819
110,Ni8874Co432Cr3896Al278Mo452Ti327Nb393Fe2551,2.988052528508448,8.2,77.8888513402825,0.8362883717231224,7.1469,7.1469
111,Ni8874Co425Cr3775Al271Mo468Ti322Nb446Fe2531,2.9889392773694627,8.2,77.92413510545128,0.8345250147725901,7.2119,7.2119
112,Ni8822Co424Cr3818Al276Mo477Ti332Nb483Fe2516,2.9865026739201763,8.2,78.04096911486718,0.8301892855952343,7.2769,7.2769
113,Ni8864Co432Cr3992Al275Mo450Ti286Nb361Fe2574,3.028030613060249,8.2,77.63523672097057,0.8360179032372977,7.3418,7.3418
114,Ni8721Co430Cr3861Al514Mo453Ti341Nb450Fe2487,3.0590871549332324,8.2,77.63053670350581,0.8277283684989473,7.4068,7.4068
115,Ni8835Co439Cr3966Al275Mo473Ti295Nb388Fe2551,3.0312275915854565,8.2,77.65360516356255,0.8343557237176505,7.4718,7.4718
116,Ni8806Co482Cr3827Al286Mo501Ti361Nb469Fe2397,3.0983684079338247,8.21,77.14490236867508,0.8374881533956688,7.5367,7.5367
117,Ni8856Co640Cr3916Al317Mo538Ti362Nb338Fe2246,3.116041390257884,8.21,76.48048627533886,0.8604974243949803,7.6017,7.6017
118,Ni8886Co662Cr3891Al319Mo542Ti345Nb304Fe2232,3.094454187767628,8.21,76.49354480974492,0.865948610088166,7.6667,7.6667
119,Ni8836Co668Cr3995Al359Mo555Ti383Nb333Fe2203,3.116677117691869,8.21,76.47767130199567,0.8604400008053434,7.7317,7.7317
120,Ni8816Co710Cr3986Al324Mo586Ti414Nb347Fe2090,3.1131805352049327,8.21,76.41395669651845,0.8640836089768676,7.7966,7.7966
121,Ni8954Co712Cr4104Al335Mo532Ti339Nb271Fe2197,3.163240744902165,8.21,75.94524601860049,0.8698596618535044,7.8616,7.8616
122,Ni8870Co726Cr4028Al320Mo563Ti375Nb307Fe2123,3.1308177252087575,8.21,76.17553748968258,0.8691972163206525,7.9266,7.9266
123,Ni8824Co708Cr3993Al331Mo577Ti389Nb340Fe2121,3.117879872069586,8.21,76.37421988423462,0.8644495422823971,7.9915,7.9915
124,Ni8803Co712Cr3927Al327Mo573Ti402Nb360Fe2105,3.1169010037867624,8.21,76.35770986155674,0.8654146493229207,8.0565,8.0565
125,Ni8949Co738Cr4064Al326Mo545Ti346Nb275Fe2164,3.117082367221479,8.21,76.17172789897047,0.8731877602990248,8.1215,8.1215
126,Ni8731Co724Cr3789Al331Mo615Ti442Nb459Fe1989,3.117103290325698,8.21,76.44607028579598,0.8616482430249397,8.1865,8.1865
127,Ni8886Co751Cr3868Al330Mo559Ti372Nb292Fe2107,3.1171003700241746,8.21,76.07680084001922,0.8771832348155375,8.2514,8.2514
128,Ni8879Co747Cr3814Al338Mo576Ti402Nb346Fe2071,3.1170999833324844,8.21,76.16023816059581,0.8736667731461709,8.3164,8.3164
129,Ni8870Co753Cr3892Al339Mo579Ti375Nb282Fe2086,3.117100323694203,8.21,76.10245141435608,0.8761017619387723,8.3814,8.3814
130,Ni8734Co776Cr3642Al340Mo625Ti453Nb382Fe1956,3.1170983068724962,8.21,76.12160196016713,0.8752951358192501,8.4464,8.4464
131,Ni8877Co793Cr3996Al351Mo595Ti400Nb297Fe2023,3.117080194003127,8.21,76.09151368302688,0.8765685374381695,8.5113,8.5113
132,Ni8858Co781Cr3965Al349Mo611Ti412Nb329Fe2004,3.1171749057935894,8.21,76.1747221861225,0.8730357339433119,8.5763,8.5763
133,Ni8768Co760Cr3875Al327Mo602Ti420Nb370Fe2005,3.1182618703514757,8.21,76.23297412531103,0.8702799728709022,8.6413,8.6413
134,Ni8842Co788Cr3951Al331Mo586Ti404Nb328Fe2012,3.1140608436172474,8.21,76.12860223152032,0.8758536034462199,8.7062,8.7062
135,Ni8785Co793Cr4027Al338Mo600Ti414Nb307Fe1983,3.1473247229938024,8.21,75.93946577986142,0.8745003779383891,8.7712,8.7712
136,Ni8919Co825Cr4044Al358Mo607Ti396Nb257Fe1975,3.116461106522177,8.21,75.97848444639192,0.8815126381542161,8.8362,8.8362
137,Ni8807Co818Cr3981Al347Mo620Ti412Nb323Fe1972,3.1166936768056988,8.21,76.09573519543909,0.87649924287945,8.9012,8.9012
138,Ni8776Co815Cr4005Al347Mo628Ti445Nb329Fe1945,3.1171038609075445,8.21,76.14085343136145,0.8744823353585753,8.9661,8.9661
139,Ni8910Co824Cr3974Al347Mo590Ti380Nb257Fe2017,3.1171075038876914,8.21,75.9170465988259,0.8839250285405963,9.0311,9.0311
140,Ni8868Co816Cr3995Al350Mo599Ti380Nb264Fe2009,3.1171000765196717,8.21,75.98251194002998,0.8811618860153192,9.0961,9.0961
141,Ni8822Co810Cr4032Al342Mo602Ti441Nb328Fe1972,3.117099863138738,8.21,76.12418521613712,0.875185830513965,9.161,9.161
142,Ni8888Co823Cr4042Al350Mo589Ti386Nb276Fe2006,3.11709999525109,8.21,75.98967264164176,0.8808595863066276,9.226,9.226
143,Ni8884Co812Cr3956Al340Mo615Ti398Nb319Fe1989,3.1171000327247778,8.21,76.06253108684474,0.8777851325481019,9.291,9.291
144,Ni8821Co842Cr3870Al355Mo642Ti447Nb302Fe1913,3.1171000852841817,8.21,75.95786328987711,0.8822027600259381,9.356,9.356
145,Ni8975Co878Cr3685Al351Mo575Ti328Nb196Fe2002,3.117098417501077,8.21,75.46397588458021,0.9031308816620022,9.4209,9.4209
146,Ni8845Co817Cr3795Al353Mo607Ti388Nb275Fe1996,3.117093650801114,8.21,75.89594378619458,0.8848208474448214,9.4859,9.4859
147,Ni8755Co810Cr3752Al349Mo634Ti453Nb360Fe1923,3.1171809382105287,8.21,76.06422359638894,0.8776909671126669,9.5509,9.5509
148,Ni8834Co823Cr3691Al345Mo606Ti400Nb304Fe1986,3.1175330502885745,8.21,75.85533291899063,0.8864129728649347,9.6158,9.6158
149,Ni8873Co818Cr3982Al339Mo593Ti371Nb239Fe2045,3.1130510389570123,8.21,75.9530177526233,0.8835551389355077,9.6808,9.6808
150,Ni8713Co800Cr3850Al340Mo653Ti462Nb421Fe1905,3.166006936386372,8.21,75.94367758790985,0.8691648828925743,9.7458,9.7458
151,Ni8938Co838Cr3877Al348Mo575Ti402Nb246Fe1998,3.125466379235485,8.21,75.7229342289316,0.8897523620886947,9.8108,9.8108
152,Ni8845Co837Cr4056Al357Mo610Ti413Nb297Fe1958,3.120263348056868,8.21,76.00513612289606,0.8793144578378753,9.8757,9.8757
153,Ni8787Co822Cr4003Al342Mo621Ti437Nb350Fe1922,3.0838641720306104,8.21,76.3503980458756,0.8749961925945582,9.9407,9.9407
154,Ni8905Co846Cr3952Al348Mo598Ti375Nb248Fe1995,3.015651293202071,8.21,76.52167565962674,0.887357712533497,10.0057,10.0057
155,Ni8841Co833Cr4007Al356Mo618Ti425Nb304Fe1939,2.987975935465803,8.21,76.89199972999126,0.8794192298876269,10.0707,10.0707
156,Ni8769Co808Cr3958Al347Mo635Ti456Nb345Fe1930,2.989336422538245,8.21,77.01632701527402,0.8736144432696045,10.1356,10.1356
157,Ni8888Co826Cr4086Al343Mo615Ti403Nb273Fe1996,2.9873953434761704,8.21,76.90385827985705,0.8790739351543966,10.2006,10.2006
158,Ni8866Co816Cr4083Al343Mo603Ti407Nb305Fe1983,3.0567599057327315,8.21,76.49438954606951,0.8765908850400582,10.2656,10.2656
159,Ni8835Co844Cr4188Al348Mo616Ti431Nb310Fe1931,3.034462780361634,8.21,76.65444373202185,0.8761439083918895,10.3305,10.3305
160,Ni8901Co823Cr3832Al354Mo590Ti402Nb266Fe1983,3.048151208124655,8.21,76.31372966208303,0.886823855779942,10.3955,10.3955
161,Ni8859Co833Cr3609Al354Mo625Ti437Nb306Fe1936,3.1166020657719584,8.21,75.8090030304577,0.8886380778140527,10.4605,10.4605
162,Ni8827Co824Cr3502Al352Mo592Ti428Nb300Fe1957,3.1162311184951985,8.21,75.72470912281582,0.8923140156786693,10.5255,10.5255
163,Ni8782Co826Cr3601Al344Mo649Ti439Nb356Fe1900,3.1170930248358744,8.21,75.93266477905571,0.8832692062067139,10.5904,10.5904
164,Ni8899Co829Cr3582Al344Mo597Ti390Nb272Fe1960,3.117097402867813,8.21,75.69319460103962,0.893401434679754,10.6554,10.6554