,formula,thickness,density,height,transmission,mu_per_cm,transmission (2.53 Å),mu_per_cm (2.53 Å)
137,Ni8807Co818Cr3981Al347Mo620Ti412Nb323Fe1972,2.1182026815253887,8.22884,8.9012,68.96874298134745,1.7539246245748157,70.603805,1.6433089750711851
138,Ni8776Co815Cr4005Al347Mo628Ti445Nb329Fe1945,2.117132361120108,8.22884,8.9661,69.04059066568693,1.7498933493269848,70.675321,1.6393577788301306
139,Ni8910Co824Cr3974Al347Mo590Ti380Nb257Fe2017,2.1068183124351396,8.22884,9.0311,68.8898580120696,1.7688341480013559,70.525102,1.6574826635231643
140,Ni8868Co816Cr3995Al350Mo599Ti380Nb264Fe2009,2.0876591261038566,8.22884,9.0961,69.20186536376313,1.7634218297461566,70.825584,1.6523286312230265
141,Ni8822Co810Cr4032Al342Mo602Ti441Nb328Fe1972,2.0898865477806265,8.22884,9.161,69.34784331297162,1.7514593731742205,70.968811,1.640900973852197
142,Ni8888Co823Cr4042Al350Mo589Ti386Nb276Fe2006,2.1284703808910086,8.22884,9.226,68.71786328008598,1.7625850248794261,70.360446,1.6516035668900637
143,Ni8884Co812Cr3956Al340Mo615Ti398Nb319Fe1989,2.129785428192059,8.22884,9.291,68.79171341993184,1.7564534334245265,70.427681,1.6460991771376297
144,Ni8821Co842Cr3870Al355Mo642Ti447Nb302Fe1913,2.0840121350719634,8.22884,9.356,69.21673169555505,1.7654770761189935,70.850982,1.6534997751698943
145,Ni8975Co878Cr3685Al351Mo575Ti328Nb196Fe2002,2.105978325219578,8.22884,9.4209,68.34607325711232,1.8071699524568356,70.008634,1.693045006294254
146,Ni8845Co817Cr3795Al353Mo607Ti388Nb275Fe1996,2.063230261797823,8.22884,9.4859,69.39385567472175,1.7708729079166527,71.009494,1.6593232753289304
147,Ni8755Co810Cr3752Al349Mo634Ti453Nb360Fe1923,2.1017349178747184,8.22884,9.5509,69.13220120694118,1.7564039681683772,70.759721,1.6456892668445162
148,Ni8834Co823Cr3691Al345Mo606Ti400Nb304Fe1986,2.0481484471119162,8.22884,9.6158,69.5329559700676,1.7741358528040265,71.144588,1.6622619785080077
149,Ni8873Co818Cr3982Al339Mo593Ti371Nb239Fe2045,2.1034205529125853,8.22884,9.6808,68.941812664017,1.7681073400812386,70.574143,1.6568553280981284
150,Ni8713Co800Cr3850Al340Mo653Ti462Nb421Fe1905,2.056394671315077,8.22884,9.7458,69.92406263189257,1.739745571782451,71.523191,1.6297865575260744
151,Ni8938Co838Cr3877Al348Mo575Ti402Nb246Fe1998,2.0511410703241157,8.22884,9.8108,69.4011373269569,1.7807986778569,71.021916,1.6682503484122606
152,Ni8845Co837Cr4056Al357Mo610Ti413Nb297Fe1958,2.0877310605795842,8.22884,9.8757,69.25475421485224,1.7597017034038087,70.885894,1.6481947077290409
153,Ni8787Co822Cr4003Al342Mo621Ti437Nb350Fe1922,2.111488947425701,8.22884,9.9407,69.09480876344182,1.7508525674305284,70.72912,1.6401355882986648
154,Ni8905Co846Cr3952Al348Mo598Ti375Nb248Fe1995,2.097037864681655,8.22884,10.0057,68.91373691208761,1.775431237939563,70.554657,1.6632150798036913
155,Ni8841Co833Cr4007Al356Mo618Ti425Nb304Fe1939,2.01043590313644,8.22884,10.0707,70.19935600070069,1.7599717962934964,71.795959,1.6481102050450565
156,Ni8769Co808Cr3958Al347Mo635Ti456Nb345Fe1930,2.0829375629001556,8.22884,10.1356,69.48231510630532,1.7480021061823776,71.099664,1.637531441189958
157,Ni8888Co826Cr4086Al343Mo615Ti403Nb273Fe1996,2.101613353225024,8.22884,10.2006,69.09895458181657,1.758794422502531,70.730792,1.6477301924248982
158,Ni8866Co816Cr4083Al343Mo603Ti407Nb305Fe1983,2.1012746441673085,8.22884,10.2656,69.17215498596528,1.7540391017510593,70.799127,1.643400194407989
159,Ni8835Co844Cr4188Al348Mo616Ti431Nb310Fe1931,2.1005846114010334,8.22884,10.3305,69.19511653818388,1.7530352936676872,70.833423,1.6416345170698903
160,Ni8901Co823Cr3832Al354Mo590Ti402Nb266Fe1983,2.1005263594542125,8.22884,10.3955,68.88499217557013,1.7744688154031516,70.519822,1.662803949096823
161,Ni8859Co833Cr3609Al354Mo625Ti437Nb306Fe1936,2.1000481719896302,8.22884,10.4605,68.83576887960089,1.7782767301405304,70.475048,1.6662068640265881
162,Ni8827Co824Cr3502Al352Mo592Ti428Nb300Fe1957,2.0996638311188374,8.22884,10.5255,68.73415976109315,1.785637652593149,70.373115,1.673405426904295
163,Ni8782Co826Cr3601Al344Mo649Ti439Nb356Fe1900,2.099308234991458,8.22884,10.5904,68.9999607094286,1.7675548765761635,70.633747,1.6560795935924566
164,Ni8899Co829Cr3582Al344Mo597Ti390Nb272Fe1960,2.0975902089936747,8.22884,10.6554,68.7280373122366,1.7878275563425163,70.366453,1.6755110448897026
165,Ni8775Co823Cr3659Al338Mo624Ti404Nb320Fe1952,2.096382291736791,8.22884,10.7204,68.98501692539685,1.7710550811397392,70.617613,1.6594807066126323
166,Ni8841Co817Cr3656Al344Mo613Ti455Nb359Fe1913,2.0586492231474454,8.22884,10.7853,69.49605212415909,1.7676651024758965,71.109335,1.6561906711029462
167,Ni8899Co837Cr3790Al349Mo597Ti370Nb237Fe1996,2.064520701635916,8.24296,10.8503,69.1605105257813,1.7860811136498964,70.788246,1.6734015587547975
168,Ni8793Co919Cr3970Al361Mo656Ti458Nb303Fe1799,2.057806905212242,8.24296,10.9153,69.32140348843718,1.7806164120758505,70.978335,1.665829264585109
169,Ni8939Co1022Cr3998Al381Mo668Ti416Nb198Fe1729,2.111005559487456,8.24296,10.9803,68.13711645303755,1.817371303943851,69.860637,1.6990378201637075
170,Ni8805Co970Cr3936Al370Mo671Ti480Nb280Fe1720,2.068748171434239,8.24296,11.0452,68.9683232276549,1.7958825321962697,70.653706,1.6791779070171045
171,Ni8873Co994Cr4172Al378Mo638Ti417Nb214Fe1764,2.106121451446379,8.24296,11.1102,68.41458387333739,1.802290030821426,70.124333,1.6850895922131721
172,Ni8801Co1037Cr3995Al386Mo718Ti491Nb258Fe1618,2.1447133463876,8.24296,11.1752,67.89112501106433,1.8056719205743197,69.635744,1.6873685607791287
173,Ni8857Co1053Cr3955Al386Mo687Ti451Nb205Fe1659,2.1405757260596596,8.24296,11.2401,67.6980520812827,1.8224666127754539,69.449787,1.7031221054635308
174,Ni8837Co1015Cr3911Al376Mo693Ti453Nb241Fe1701,2.141733533549934,8.24296,11.3051,67.86380661051797,1.810063329897315,69.59836,1.6922235024400865
175,Ni8855Co1039Cr4036Al386Mo710Ti484Nb234Fe1633,2.140921514701068,8.24296,11.3701,67.89286314253519,1.8087504032540014,69.636441,1.6903103434455373
176,Ni8838Co1053Cr4048Al395Mo682Ti474Nb225Fe1646,2.086439218889886,8.24296,11.4351,68.47046130312926,1.815378814516569,70.198016,1.6959522916379945
177,Ni8881Co1085Cr4042Al393Mo697Ti449Nb199Fe1606,2.162757034184555,8.24296,11.5,67.37669100160022,1.825776323824458,69.149165,1.70571264972519
178,Ni8842Co1102Cr4035Al405Mo729Ti482Nb216Fe1559,2.136274720149147,8.24296,11.565,67.73846918088424,1.8233419776567148,69.506226,1.702748486722857
179,Ni8795Co1095Cr3989Al404Mo707Ti474Nb221Fe1558,2.174043217928592,8.24296,11.63,67.24249013126942,1.825468975867114,69.026094,1.70505156434151
180,Ni8923Co1117Cr4015Al410Mo686Ti445Nb168Fe1585,2.1739930255404114,8.24296,11.695,67.0309312105082,1.8400059640094009,68.822533,1.7186760755233248
181,Ni8755Co1099Cr4024Al415Mo750Ti529Nb226Fe1509,2.1797697702931824,8.24296,11.7599,67.28694778544097,1.8176410845170616,69.07478,1.697337513208203
182,Ni8666Co1106Cr4004Al410Mo758Ti699Nb245Fe1467,2.138268960959735,8.24296,11.8249,67.84980102154243,1.8139613837925694,69.629878,1.6928479801298815
183,Ni8898Co1145Cr3996Al406Mo720Ti467Nb187Fe1522,2.1455698020466225,8.24296,11.8899,67.36077082156966,1.841503233451176,69.151059,1.7192487194268977
184,Ni8883Co1134Cr4008Al401Mo713Ti436Nb190Fe1557,2.1488011821617157,8.24296,11.9548,67.36244682227853,1.8386181813131597,69.148566,1.716831080892903
185,Ni8854Co1140Cr3968Al410Mo735Ti490Nb204Fe1508,2.175563687104523,8.24296,12.0198,67.0597569385041,1.8367013195833242,68.860928,1.714871661816677
186,Ni8677Co1106Cr3953Al399Mo768Ti583Nb263Fe1463,2.1770588167619604,8.24296,12.0848,67.35269615156041,1.815418347653349,69.144507,1.6948167141850403
187,Ni8816Co1134Cr3809Al408Mo729Ti498Nb210Fe1491,2.1770924726153855,8.24296,12.1498,66.94183601751132,1.843495707328622,68.745591,1.7213673149894835
188,Ni8769Co1137Cr3928Al398Mo749Ti516Nb226Fe1486,2.1770879566684322,8.24296,12.2147,67.09848636932644,1.8327633427804444,68.901225,1.7109838286282881
189,Ni8826Co1129Cr3861Al400Mo727Ti478Nb211Fe1517,2.1749358861351826,8.24296,12.2797,67.01973294555384,1.8399764836092585,68.818476,1.718202053548251
190,Ni8794Co1138Cr3712Al411Mo765Ti533Nb240Fe1459,2.1469960303148143,8.24296,12.3447,67.35131390765152,1.8409338866497833,69.143414,1.71862159701381
191,Ni8857Co1156Cr3875Al409Mo735Ti530Nb220Fe1471,2.1640654235400074,8.24296,12.4096,67.10457043457005,1.8433732465377617,68.909286,1.7207392991122716
192,Ni8835Co1148Cr3764Al410Mo733Ti493Nb200Fe1491,2.1800852169697675,8.24296,12.4746,66.80929906881072,1.8500556968027861,68.61995,1.7273952150000502
193,Ni8866Co1141Cr3889Al405Mo725Ti471Nb193Fe1508,2.16027841875337,8.24296,12.5396,67.13396929087374,1.8445771522117729,68.931185,1.722284936306769
194,Ni8884Co1147Cr3799Al411Mo712Ti471Nb199Fe1514,2.2133800363563987,8.24296,12.6046,66.38400560026457,1.851078582557291,68.20574,1.7287653009074013
195,Ni8894Co1155Cr3851Al411Mo716Ti475Nb178Fe1496,2.229083986759374,8.24296,12.6695,66.16738259997729,1.8527007366693893,67.999379,1.7301798204890098
196,Ni8862Co1160Cr3899Al405Mo734Ti455Nb185Fe1505,2.1535140791936827,8.24296,12.7345,67.16158781884948,1.8484611527488475,68.962695,1.7255725577098031
197,Ni8725Co1127Cr3943Al392Mo758Ti541Nb255Fe1466,2.196001949585783,8.24296,12.7995,66.9892071271931,1.8244003257945152,68.795567,1.7032356293435122
198,Ni8884Co1164Cr3918Al403Mo730Ti480Nb207Fe1482,2.2026780543053954,8.24296,12.8644,66.58749569646858,1.846177100551952,68.409221,1.7236407279857093
199,Ni8827Co1143Cr3736Al413Mo731Ti507Nb213Fe1502,2.240234308779196,8.24296,12.9294,66.10303858088236,1.8478222082002027,67.935424,1.7257684946443643
200,Ni8825Co1154Cr3868Al402Mo719Ti493Nb196Fe1491,2.2491931844865882,8.24296,12.9944,65.99339561919463,1.847842676258816,67.833881,1.725544958845593
201,Ni8665Co1121Cr3732Al413Mo750Ti534Nb261Fe1469,2.253826204233876,8.24296,13.0594,66.16984090940942,1.8321971830035486,68.00091,1.7110862311571922
202,Ni8806Co1141Cr3627Al409Mo744Ti496Nb222Fe1469,2.2595393465259295,8.24296,13.1243,65.81855641260192,1.8511223347730035,67.659217,1.7290541803217694
203,Ni8834Co1156Cr3602Al417Mo722Ti488Nb200Fe1478,2.2211000486997063,8.24296,13.1893,66.13064818084344,1.8618606711390373,67.963994,1.738742571604113
204,Ni8819Co1158Cr3554Al407Mo740Ti494Nb203Fe1477,2.2444543769502223,8.24296,13.2543,65.83988477748125,1.8621201836455648,67.683237,1.7390936872151839
205,Ni8845Co1156Cr3625Al402Mo729Ti477Nb182Fe1486,2.260544522864595,8.24296,13.3192,65.63593282206281,1.8625905365243698,67.484637,1.7397145246936347
206,Ni8832Co1156Cr3530Al411Mo741Ti497Nb182Fe1467,2.2262444427757067,8.24296,13.3842,66.00617012399826,1.8660213300120736,67.843646,1.7426857733606032
207,Ni8770Co1176Cr3563Al415Mo769Ti493Nb191Fe1448,2.202787178485773,8.24296,13.4492,66.3331788922275,1.8634572699595326,68.168087,1.739585498531949
208,Ni8774Co1147Cr3636Al408Mo760Ti526Nb213Fe1452,2.241940325377427,8.24296,13.5142,66.04051489492791,1.8506369931308915,67.878585,1.7281886902320287
209,Ni8689Co1127Cr3883Al402Mo776Ti521Nb236Fe1486,2.238715116198929,8.24296,13.5791,66.44113617167636,1.826287756370773,68.26532,1.705300980395024
210,Ni8857Co1164Cr3924Al407Mo767Ti503Nb209Fe1456,2.222795041699834,8.24296,13.6441,66.42524183950414,1.8404443319505048,68.254573,1.7182229730573562
211,Ni8713Co1166Cr3882Al414Mo774Ti514Nb216Fe1429,2.2628162196303085,8.24296,13.7091,65.95938552322941,1.8389960290640497,67.810059,1.7167087448136853
212,Ni8846Co1171Cr3931Al406Mo723Ti477Nb191Fe1489,2.2249659431363544,8.24296,13.7741,66.27210428470612,1.8490221320422315,68.107527,1.7262396824137134
213,Ni8782Co1140Cr3963Al405Mo750Ti475Nb211Fe1494,2.2387188081925338,8.24296,13.839,66.33500938640772,1.8334253574727772,68.162267,1.7120463840345033
214,Ni8843Co1148Cr3750Al424Mo733Ti486Nb191Fe1483,2.239627028276221,8.24296,13.904,66.05669560858367,1.8514546534054388,67.89151,1.7291236048267804
215,Ni8839Co1151Cr3881Al399Mo718Ti489Nb180Fe1495,2.2372832718090376,8.24296,13.969,66.12036733218989,1.8490879663080428,67.955671,1.7267129080874846
216,Ni8810Co1185Cr3879Al403Mo753Ti498Nb195Fe1436,2.2240343397781612,8.24296,14.0339,66.25391294104465,1.851031039592389,68.09617,1.7277126003137457
217,Ni8810Co1179Cr3915Al408Mo767Ti509Nb212Fe1425,2.2304702937080223,8.24296,14.0989,66.28408337418693,1.8436487970657611,68.12445,1.720865808051933
218,Ni8855Co1334Cr3997Al437Mo775Ti520Nb140Fe1245,2.204520554092253,8.24296,14.1639,65.9928600524831,1.8853243625472929,67.887066,1.7569564269112863
219,Ni8874Co1311Cr3948Al434Mo779Ti517Nb142Fe1264,2.245013376850572,8.25708,14.2289,65.49485365852304,1.8850605564152503,67.397614,1.757497631677495
220,Ni8780Co1295Cr3931Al453Mo792Ti539Nb156Fe1261,2.2390165819435257,8.25708,14.2938,65.69266877979271,1.8766402018494055,67.589005,1.7495398080381712
221,Ni8789Co1298Cr4050Al428Mo811Ti592Nb176Fe1240,2.2428470795707787,8.25708,14.3588,65.79579915436621,1.866441079049272,67.692255,1.7397459592360769
222,Ni8827Co1354Cr4023Al442Mo792Ti542Nb129Fe1219,2.2455847363409447,8.25708,14.4238,65.41471178004872,1.8900333404869447,67.335335,1.761167341289044
223,Ni8833Co1361Cr4049Al440Mo797Ti543Nb133Fe1199,2.2348815302779226,8.25708,14.4887,65.55223332382765,1.8896881114199797,67.470609,1.7606217592512847
224,Ni8794Co1371Cr3930Al438Mo799Ti563Nb140Fe1164,2.2096032469679554,8.25708,14.5537,65.75180023117886,1.8975494172472043,67.668027,1.767540814868623
225,Ni8843Co1383Cr4010Al444Mo825Ti547Nb132Fe1147,2.2487189714013947,8.25708,14.6187,65.31476708551473,1.8941986014765155,67.246667,1.7645723414933894
226,Ni8866Co1399Cr4004Al453Mo811Ti544Nb133Fe1133,2.200869159087946,8.25708,14.6836,65.81968342032657,1.900391263772759,67.738478,1.769827186243532
227,Ni8816Co1405Cr4001Al450Mo842Ti584Nb132Fe1084,2.221998382971637,8.25708,14.7486,65.59398971696568,1.8977786736266073,67.52592,1.7671419782655642
228,Ni8882Co1413Cr3823Al459Mo813Ti535Nb112Fe1109,2.1883977544985176,8.25708,14.8136,65.73648363974145,1.9170011814342995,67.659816,1.7852227334628397
229,Ni8869Co1415Cr3973Al458Mo817Ti536Nb115Fe1102,2.2032328111171493,8.25708,14.8785,65.67997905687781,1.9079964567923628,67.607603,1.7767061967945643
230,Ni8864Co1406Cr3928Al452Mo810Ti548Nb119Fe1102,2.2263885853759096,8.25708,14.9435,65.37983272110016,1.9087249460871971,67.315144,1.7776993421660037
231,Ni8784Co1417Cr3936Al442Mo830Ti537Nb133Fe1103,2.191690480956386,8.25708,15.0085,65.85261786177689,1.906067518631716,67.777814,1.7745903224489423
232,Ni8777Co1431Cr3869Al466Mo849Ti575Nb115Fe1048,2.2218159967361575,8.25708,15.0734,65.38684970679284,1.9121701490446268,67.33303,1.7801621862325938
233,Ni8833Co1442Cr3856Al464Mo824Ti546Nb107Fe1056,2.2320586621396283,8.25708,15.1384,65.13396115656185,1.9207563999975985,67.087648,1.7883501414375023
234,Ni8825Co1435Cr3871Al461Mo858Ti577Nb116Fe1048,2.237293394240871,8.25708,15.2034,65.19362874550445,1.9121695954528617,67.14502,1.7803450773040619
235,Ni8864Co1459Cr3911Al460Mo819Ti540Nb97Fe1071,2.235605068269839,8.25708,15.2684,65.04975358350688,1.9234961275096263,67.009033,1.7907579494751855
236,Ni8795Co1461Cr3916Al460Mo861Ti578Nb112Fe1009,2.2189559868432918,8.25708,15.3333,65.36270609456477,1.916299087945061,67.317598,1.783489622963541
237,Ni8732Co1468Cr3943Al466Mo854Ti598Nb119Fe999,2.2014136519790624,8.25708,15.3983,65.59708059107953,1.9153101636943854,67.549617,1.7820721295129676
238,Ni8866Co1467Cr3776Al476Mo853Ti544Nb104Fe1023,2.2579077905661618,8.25708,15.4633,64.70786944130207,1.9278349806872839,66.679567,1.7948989038486005
239,Ni8683Co1454Cr3916Al450Mo873Ti650Nb147Fe990,2.258895112299358,8.25708,15.5282,65.01139787344206,1.9062752281905284,66.982521,1.774046431139894
240,Ni8776Co1439Cr3844Al473Mo846Ti591Nb104Fe1015,2.262851984528546,8.25708,15.5932,64.80238161015957,1.9171728112496442,66.770442,1.7849584999920922
241,Ni8838Co1460Cr3824Al474Mo852Ti569Nb93Fe1026,2.2308755725953002,8.25708,15.6582,65.0928938189196,1.924602187291594,67.05329,1.7915948092945997
242,Ni8829Co1483Cr3837Al464Mo834Ti563Nb97Fe1027,2.2323673276552465,8.25708,15.7231,64.97967901201542,1.9311140698728997,66.949451,1.7973400213455397
243,Ni8811Co1479Cr3860Al460Mo841Ti566Nb96Fe1019,2.2307074847923016,8.25708,15.7881,65.04153643060357,1.9282855376748025,67.00963,1.7946496719603566
244,Ni8880Co1482Cr3898Al456Mo817Ti528Nb94Fe1029,2.239205935358958,8.25708,15.8531,64.88629357687698,1.931639116852269,66.856236,1.7980731337056417
245,Ni8772Co1448Cr3655Al471Mo873Ti618Nb119Fe1011,2.2389154811840153,8.25708,15.918,65.00117189440302,1.923989050638536,66.9642,1.7910994904887356
246,Ni8835Co1450Cr3705Al460Mo831Ti559Nb104Fe1040,2.2282365197964973,8.25708,15.983,65.03273069091182,1.9310315126649995,66.991023,1.7978861628438874
247,Ni8904Co1465Cr3711Al471Mo830Ti541Nb91Fe1049,2.2574388679474664,8.25708,16.048,64.59466541195012,1.9359919933030123,66.566911,1.8027622785880004
248,Ni8805Co1452Cr3801Al458Mo886Ti597Nb116Fe1015,2.2618522542617088,8.25708,16.1129,64.82847077607158,1.9162406142000465,66.797036,1.7839868936051253
249,Ni8855Co1476Cr3675Al470Mo845Ti546Nb97Fe1025,2.2632898460102417,8.25708,16.1779,64.49703168035542,1.9376704423343212,66.477227,1.8040585867676469
250,Ni8833Co1465Cr3602Al463Mo854Ti575Nb102Fe1019,2.265222366873683,8.25708,16.2429,64.47973023826925,1.9372017417158522,66.459049,1.8037268150717503
251,Ni8814Co1467Cr3597Al468Mo864Ti603Nb111Fe1002,2.2350047877658805,8.25708,16.3078,64.89004651693843,1.9350112485853974,66.85889,1.8012753672487616
252,Ni8791Co1483Cr3630Al463Mo884Ti577Nb106Fe990,2.2381064182664816,8.25708,16.3728,64.84541598808883,1.9354037885389632,66.820216,1.8013643730662066
253,Ni8845Co1427Cr3682Al456Mo835Ti561Nb121Fe1079,2.261265154312694,8.25708,16.4378,64.7323499662067,1.92329992408087,66.692601,1.7913696144050988
254,Ni8805Co1421Cr3667Al457Mo858Ti578Nb126Fe1053,2.2578646971079395,8.25708,16.5027,64.83796563976054,1.918976213448971,66.79596,1.7872088918047664
255,Ni8796Co1481Cr3755Al458Mo831Ti533Nb115Fe1044,2.261292989638201,8.25708,16.5677,64.58749897905525,1.9331829629555775,66.568074,1.7996124102894573
256,Ni8832Co1490Cr3901Al468Mo851Ti553Nb98Fe984,2.178893040104929,8.25708,16.6327,65.69456435029473,1.928291066064759,67.64404,1.7940804278805556
257,Ni8847Co1485Cr3931Al463Mo855Ti569Nb92Fe997,2.225110877150302,8.25708,16.6977,65.1587140201648,1.9250462643124104,67.124248,1.7914830235869004
258,Ni8768Co1469Cr3885Al462Mo886Ti650Nb126Fe976,2.264606671628302,8.25708,16.7626,64.83943003967147,1.913163485938716,66.816412,1.7805363379474584
259,Ni8875Co1474Cr3987Al476Mo829Ti559Nb99Fe1019,2.2600177366612644,8.25708,16.8276,64.78003099901683,1.9211034792976676,66.75336,1.7883291194564903
260,Ni8842Co1479Cr3926Al472Mo859Ti578Nb97Fe1003,2.2256045582965314,8.25708,16.8926,65.19635176714664,1.922024609079799,67.159407,1.7887327827138804
261,Ni8843Co1482Cr3879Al464Mo841Ti564Nb93Fe1015,2.2416166279419363,8.25708,16.9575,64.90193564125858,1.9284864876240053,66.874082,1.7949488014743802
262,Ni8883Co1477Cr3834Al478Mo848Ti552Nb89Fe998,2.2428553486710032,8.25708,17.0225,64.86202015451225,1.9301643303290457,66.832284,1.7967450688237732
263,Ni8874Co1480Cr3833Al467Mo841Ti545Nb89Fe1008,2.2431504905277992,8.25708,17.0875,64.8308687814455,1.9320519412500967,66.802781,1.7984770806911736
264,Ni8681Co1468Cr4023Al456Mo921Ti658Nb131Fe957,2.217309617059054,8.25708,17.1524,65.6207726421357,1.899950646458057,67.577644,1.7674255533819672
265,Ni8924Co1490Cr3973Al468Mo799Ti522Nb92Fe1035,2.1938748472916525,8.25708,17.2174,65.45119324637804,1.9320403025841142,67.403578,1.79806101479494
266,Ni8837Co1475Cr3843Al476Mo879Ti583Nb102Fe988,2.226058764116009,8.25708,17.2824,65.18221442716168,1.9226066536364848,67.144615,1.7893573442528898
267,Ni8832Co1556Cr3822Al487Mo898Ti625Nb79Fe850,2.263996485814674,8.25708,17.3473,64.39588569975476,1.9439979007300479,66.407256,1.8081470573496612
268,Ni8575Co1517Cr3739Al468Mo867Ti607Nb78Fe839,2.2565824899498663,8.2712,17.4123,64.44026998893617,1.9473315948907124,66.451622,1.8111280824726075
269,Ni8905Co1574Cr3998Al490Mo865Ti573Nb65Fe868,2.2550990454252284,8.2712,17.4773,64.43978483924869,1.9486459697100114,66.450643,1.8123848052542115
270,Ni8865Co1613Cr3954Al502Mo933Ti641Nb57Fe761,2.2521862507546246,8.2712,17.5422,64.42645255044891,1.9520849271582277,66.452489,1.8146054512987173