,formula,thickness,density,height,transmission,mu_per_cm,transmission (2.53 Å),mu_per_cm (2.53 Å)
271,Ni8879Co1642Cr3908Al503Mo933Ti611Nb51Fe742,2.250069471285973,8.2712,17.6072,64.29365499962172,1.963091554850944,66.329162,1.8245682703143067
272,Ni8790Co1620Cr3915Al504Mo959Ti661Nb56Fe731,2.245842240054367,8.2712,17.6722,64.50543353584366,1.9521439086390175,66.534755,1.8142224596407535
273,Ni8972Co1665Cr3841Al503Mo896Ti568Nb44Fe758,2.2264441989773327,8.2712,17.7371,64.35695960143778,1.9795021392493801,66.389884,1.83981925393771
274,Ni8807Co1669Cr3998Al506Mo953Ti646Nb46Fe683,2.2031241517950972,8.2712,17.8021,64.90244536011177,1.962144910187342,66.931019,1.822446836700032
275,Ni8882Co1673Cr3978Al517Mo945Ti647Nb40Fe690,2.1813789366318703,8.2712,17.8671,65.12211434326777,1.966214989986411,67.141067,1.8262498812423762
276,Ni8876Co1694Cr3910Al511Mo905Ti607Nb40Fe704,2.1705536085231376,8.2712,17.932,65.05151226539515,1.9810187220106614,67.075938,1.8398292668754666
277,Ni8859Co1683Cr3846Al513Mo944Ti633Nb38Fe685,2.1319082663830953,8.2712,17.997,65.60110045822937,1.9774664864736207,67.6064,1.8362306626281826
278,Ni8913Co1689Cr3897Al514Mo946Ti616Nb31Fe684,2.134826379667021,8.2712,18.062,65.56693927102857,1.9772033717736548,67.572381,1.8360783586275724
279,Ni8911Co1709Cr3951Al517Mo930Ti602Nb32Fe673,2.1529748503539117,8.2712,18.127,65.2835474850622,1.9806554365304918,67.303106,1.8391473489673686
280,Ni8877Co1728Cr4030Al526Mo950Ti653Nb26Fe641,2.1963972239036402,8.2712,18.1919,64.77991794888726,1.976757820180907,66.82409,1.8353080095295953
281,Ni8968Co1741Cr4059Al523Mo928Ti602Nb23Fe637,2.2011415142115465,8.2712,18.2569,64.62561895299856,1.9833312523410267,66.672695,1.8416566339736873
282,Ni8784Co1707Cr4037Al514Mo1014Ti699Nb36Fe620,2.2078042428442335,8.2712,18.3219,64.85901392528433,1.9610175573907012,66.901444,1.8205854796013212
283,Ni8898Co1732Cr4059Al519Mo938Ti618Nb24Fe629,2.216384517937734,8.2712,18.3868,64.48805055426796,1.9793056598425265,66.541172,1.8378999618094929
284,Ni8822Co1742Cr3936Al522Mo942Ti654Nb21Fe593,2.1724502304649853,8.2712,18.4518,64.9202600831235,1.988586118484827,66.966266,1.845755453019254
285,Ni8872Co1745Cr3983Al530Mo959Ti628Nb18Fe601,2.209045871128353,8.2712,18.5168,64.50776950179079,1.984497097947301,66.564686,1.8424062380432547
286,Ni8988Co1771Cr4013Al524Mo908Ti580Nb16Fe605,2.218140352319616,8.2712,18.5817,64.20510089911528,1.9975630700186013,66.271219,1.8547721075446657
287,Ni8924Co1756Cr4040Al519Mo940Ti628Nb17Fe600,2.220632098340361,8.2712,18.6467,64.32441497857195,1.986960933181196,66.387766,1.844778312334506
288,Ni8885Co1739Cr4034Al529Mo955Ti643Nb20Fe584,2.222413547023018,8.2712,18.7117,64.39154588543963,1.9806747360569605,66.451474,1.8389836559920172
289,Ni8860Co1748Cr3980Al524Mo972Ti683Nb26Fe560,2.2237931697097664,8.2712,18.7766,64.3498242910084,1.98236053817756,66.41527,1.8402933853718777
290,Ni8881Co1756Cr3944Al529Mo968Ti672Nb16Fe566,2.2249762783520612,8.2712,18.8416,64.25203830365447,1.9881413678401627,66.320851,1.8457088622201823
291,Ni8837Co1748Cr4001Al536Mo971Ti688Nb16Fe560,2.2252541008397726,8.2712,18.9066,64.33877392055798,1.9818308410139875,66.40602,1.8397111179807135
292,Ni8838Co1754Cr4051Al530Mo979Ti670Nb17Fe560,2.215661759544068,8.2712,18.9715,64.49201612264822,1.979673788215506,66.555435,1.837532172088101
293,Ni8839Co1759Cr4077Al533Mo993Ti692Nb13Fe551,2.1940323141552343,8.2712,19.0365,64.79745693096493,1.9776546839946856,66.853104,1.8353077509798748
294,Ni8777Co1750Cr4047Al531Mo994Ti684Nb19Fe548,2.201126928524795,8.2712,19.1015,64.72465789930204,1.9763873685612139,66.783046,1.8341556537339487
295,Ni8901Co1774Cr4083Al532Mo984Ti654Nb8Fe553,2.186476841903643,8.2712,19.1664,64.80736702725457,1.9837891355029817,66.862276,1.8410223084950579
296,Ni8858Co1752Cr4060Al541Mo1012Ti680Nb16Fe541,2.212119643312053,8.2712,19.2314,64.61268714616656,1.9743932040546088,66.671554,1.8325943717413318
297,Ni8900Co1774Cr4085Al535Mo974Ti637Nb14Fe554,2.2017834972634165,8.2712,19.2964,64.60351741291484,1.9843064865756685,66.664481,1.8416792302676226
298,Ni8911Co1781Cr4100Al527Mo972Ti647Nb13Fe544,2.2043258625304354,8.2712,19.3613,64.55020956164851,1.9857627660235602,66.614561,1.8429534653221222
299,Ni8886Co1776Cr4143Al532Mo1007Ti677Nb12Fe538,2.228557503778738,8.2712,19.4263,64.374886369892,1.9763752624144537,66.445794,1.8342972880440513
300,Ni8882Co1755Cr4019Al524Mo986Ti668Nb14Fe559,2.2113213735044637,8.2712,19.4913,64.51516475216663,1.9819366042200717,66.575921,1.8397471540614292
301,Ni8791Co1752Cr4149Al530Mo993Ti711Nb13Fe547,2.187290368595094,8.2712,19.5562,64.97174735007756,1.9714696911158032,67.02347,1.8293288132881218
302,Ni8921Co1770Cr4118Al535Mo991Ti637Nb9Fe547,2.231243575291216,8.2712,19.6212,64.28894406760195,1.9799833482179658,66.358449,1.837984422651061
303,Ni8992Co1810Cr4213Al532Mo950Ti588Nb9Fe549,2.225960040889394,8.2712,19.6862,64.21153521197297,1.990095541230188,66.28831,1.8470979557064449
304,Ni8980Co1803Cr4117Al533Mo918Ti581Nb5Fe556,2.225232433132326,8.2712,19.7512,64.09128316579805,1.999170121458045,66.170221,1.855714719681254
305,Ni8924Co1797Cr4047Al530Mo965Ti642Nb12Fe531,2.2239243051995263,8.2712,19.8161,64.18696609193549,1.9936380714120578,66.265526,1.850334532067793
306,Ni8818Co1758Cr4049Al533Mo1012Ti714Nb9Fe524,2.2227430798736187,8.2712,19.8811,64.44123695457675,1.9769105858242773,66.510076,1.8347452510359037
307,Ni8899Co1796Cr4142Al531Mo978Ti642Nb5Fe534,2.2221243240714412,8.2712,19.9461,64.30927964181612,1.9866856343812465,66.385431,1.8436977706095767
308,Ni8931Co1791Cr4181Al536Mo989Ti669Nb7Fe534,2.2028353733323023,8.2712,20.011,64.63516934848212,1.981135365197318,66.699339,1.8384267297649959
309,Ni8853Co1790Cr4021Al535Mo970Ti674Nb9Fe528,2.1757435796288367,8.2712,20.076,64.82198047474334,1.992539191422681,66.882825,1.8486920151675346
310,Ni8896Co1800Cr4153Al545Mo977Ti669Nb6Fe531,2.180675916752111,8.2712,20.141,64.84951460900494,1.9860849416136754,66.910205,1.8426336820349651
311,Ni8857Co1780Cr4140Al534Mo1009Ti701Nb11Fe526,2.177482615764286,8.2712,20.2059,65.01589202139195,1.977230266832656,67.069318,1.834427983566858
312,Ni8944Co1806Cr4024Al537Mo950Ti615Nb11Fe543,2.193763400768349,8.2712,20.2709,64.49080579439789,1.9995206320637935,66.559735,1.855580099069402
313,Ni8783Co1769Cr4130Al529Mo1034Ti707Nb12Fe521,2.1310307405745106,8.2712,20.3359,65.6879843578114,1.9720699270480293,67.720136,1.82909900375602
314,Ni8972Co1793Cr4003Al540Mo973Ti637Nb8Fe530,2.1554526103878633,8.2712,20.4008,65.04170606288241,1.9955970641174692,67.089662,1.8517698812353254