,formula,thickness,density,height,transmission,mu_per_cm
0,Ni8740Co72Cr3576Al190Mo301Ti419Nb523Fe3290,5.0006397,8.2006,0.0,67.21218210166565,0.7945296950981406
1,Ni8692Co73Cr3565Al191Mo302Ti232Nb594Fe3264,5.000639699999985,8.2006,0.065,67.33198356852192,0.7909684504323959
2,Ni8790Co42Cr3597Al197Mo304Ti219Nb602Fe3193,5.000639699999987,8.2006,0.1299,67.43572040874703,0.7878898615047463
3,Ni8819Co38Cr3744Al192Mo294Ti215Nb539Fe3222,5.000639700000624,8.2006,0.1949,67.40673082542298,0.7887497057169841
4,Ni8828Co39Cr3580Al196Mo304Ti203Nb542Fe3226,5.000639700001359,8.2006,0.2599,67.31259034511504,0.791544507591431
5,Ni8849Co38Cr3590Al203Mo300Ti213Nb550Fe3223,5.0006396999671,8.2006,0.3249,67.32454164586477,0.7911894860140063
6,Ni8784Co43Cr3609Al195Mo304Ti212Nb549Fe3227,5.000639699890406,8.2006,0.3898,67.35161223121095,0.7903855687188976
7,Ni8785Co34Cr3576Al192Mo313Ti235Nb597Fe3159,5.000639701701987,8.2006,0.4548,67.45600698163257,0.7872883720780749
8,Ni8894Co29Cr3514Al202Mo305Ti212Nb539Fe3167,5.0006397079272915,8.2006,0.5198,67.26458484404777,0.792971178041657
9,Ni8851Co26Cr3546Al201Mo307Ti200Nb566Fe3158,5.00063961392755,8.2006,0.5848,67.3694473904711,0.789856106715898
10,Ni8852Co28Cr3658Al198Mo309Ti199Nb539Fe3176,5.000639175823636,8.2006,0.6497,67.39247701023889,0.7891726986945594
11,Ni8907Co27Cr3747Al199Mo307Ti184Nb490Fe3232,5.000643950573824,8.2006,0.7147,67.34563459429573,0.7905623872727251
12,Ni8884Co16Cr3762Al201Mo311Ti202Nb584Fe3160,5.0006730826364105,8.2006,0.7797,67.57603772264578,0.7837279719372053
13,Ni8862Co21Cr3777Al198Mo301Ti199Nb542Fe3167,5.000436177824972,8.2006,0.8446,67.48595761664376,0.786432685222245
14,Ni8872Co20Cr3693Al201Mo309Ti209Nb528Fe3174,4.998609855664826,8.2006,0.9096,67.43113280206552,0.7883459103362951
15,Ni8907Co20Cr3793Al200Mo303Ti211Nb530Fe3174,5.0099086672758215,8.2006,0.9746,67.41283235852138,0.7871097485103428
16,Ni8867Co24Cr3822Al203Mo321Ti212Nb578Fe3150,4.720583505481592,8.2006,1.0395,69.09171366507549,0.783240842985068
17,Ni8899Co20Cr3907Al196Mo305Ti207Nb497Fe3217,4.2548004960840835,8.2006,1.1045,71.5511123834996,0.7867775080767748
18,Ni8932Co14Cr3833Al198Mo302Ti209Nb522Fe3189,3.668553101755313,8.2006,1.1695,74.91260537687769,0.787362225724425
19,Ni8884Co16Cr3775Al204Mo310Ti190Nb498Fe3179,2.944595227620785,8.2006,1.2345,79.25968351104066,0.7893804523661745
20,Ni8876Co17Cr3691Al196Mo307Ti193Nb528Fe3169,2.5307754873982766,8.2006,1.2994,81.8772168237605,0.790071729731817
21,Ni8815Co14Cr3686Al221Mo328Ti221Nb614Fe3102,2.2281076104801447,8.2006,1.3644,83.98578568911165,0.7832773364699118
22,Ni8900Co19Cr3595Al196Mo311Ti202Nb554Fe3155,2.114118263975878,8.2006,1.4294,84.59471823565639,0.7913386700179273
23,Ni8917Co15Cr3655Al196Mo304Ti193Nb470Fe3206,1.9851648272647973,8.2006,1.4944,85.4062781718822,0.7946472294684584
24,Ni8884Co14Cr3797Al201Mo296Ti188Nb489Fe3221,1.9078724411358208,8.2006,1.5593,86.00070632515323,0.7904861637151624
25,Ni8865Co15Cr3877Al198Mo309Ti189Nb516Fe3190,1.9111457404188492,8.2006,1.6243,86.03834057856413,0.7868430189377481
26,Ni8898Co15Cr3870Al198Mo305Ti202Nb552Fe3171,1.8713338434438873,8.2006,1.6893,86.3237091776827,0.785888078667888
27,Ni8866Co13Cr3907Al199Mo306Ti208Nb531Fe3196,1.8687583399253036,8.2006,1.7542,86.35003437655556,0.7853395495436972
28,Ni8868Co14Cr3846Al206Mo301Ti194Nb529Fe3188,1.8580464008666275,8.2006,1.8192,86.39604984370209,0.7869998863141298
29,Ni8951Co15Cr3907Al195Mo295Ti199Nb491Fe3188,1.948906115572429,8.2006,1.8842,85.73676238103646,0.789614672531285
30,Ni8878Co12Cr3836Al200Mo311Ti192Nb512Fe3176,1.942171108956416,8.2006,1.9492,85.81597079105055,0.7875982520530247
31,Ni8874Co14Cr3860Al202Mo307Ti205Nb547Fe3160,1.940284135985127,8.2006,2.0141,85.8606063433355,0.7856842118591679
32,Ni8937Co11Cr3819Al198Mo306Ti197Nb542Fe3160,1.9159114575256475,8.2006,2.0791,85.99516741681596,0.7875055162310981
33,Ni8867Co14Cr3892Al198Mo308Ti195Nb554Fe3162,1.9184319575276272,8.2006,2.1441,86.02551250567247,0.784631824419099
34,Ni8918Co12Cr3884Al201Mo321Ti210Nb579Fe3126,1.8930226750807615,8.2006,2.209,86.21602745649753,0.7834776317486123
35,Ni8856Co12Cr3873Al204Mo303Ti198Nb550Fe3172,1.9483442609615462,8.2006,2.274,85.81973873291672,0.7848774667529066
36,Ni8898Co13Cr3884Al195Mo318Ti193Nb514Fe3192,1.9376255764423407,8.2006,2.339,85.86280032873213,0.7866303506744231
37,Ni8950Co20Cr3867Al196Mo301Ti189Nb486Fe3202,1.989550440654185,8.2006,2.404,85.4410355266921,0.7908504740870191
38,Ni8847Co14Cr3865Al195Mo309Ti227Nb532Fe3166,1.98848544718303,8.2006,2.4689,85.53305728179873,0.7858606665485821
39,Ni8789Co15Cr3749Al231Mo306Ti368Nb520Fe3138,1.99165209223247,8.2006,2.5339,85.48636435872533,0.7873528944132918
40,Ni8923Co13Cr3801Al198Mo311Ti205Nb553Fe3160,1.9923184508213012,8.2006,2.5989,85.48831454767006,0.7869750504909537
41,Ni8910Co10Cr3836Al192Mo304Ti196Nb503Fe3194,1.9697467114115148,8.2006,2.6639,85.61125659781653,0.7886973907614716
42,Ni8962Co11Cr3897Al199Mo299Ti182Nb454Fe3244,1.934865984768194,8.2006,2.7288,85.80969053782206,0.7909500903178465
43,Ni8910Co13Cr3813Al197Mo310Ti192Nb542Fe3167,1.9298535627638855,8.2006,2.7938,85.90538079360837,0.7872292576289017
44,Ni8661Co12Cr3767Al390Mo302Ti364Nb564Fe3094,1.9674378030837745,8.2006,2.8588,85.77161648264476,0.7801112909844706
45,Ni8846Co11Cr3818Al195Mo307Ti218Nb640Fe3098,1.9716977147511023,8.2006,2.9237,85.72488309808286,0.7811899875570941
46,Ni8867Co12Cr3738Al198Mo317Ti212Nb608Fe3104,2.0213933215202893,8.2006,2.9887,85.33992742736085,0.7842499375804227
47,Ni8803Co12Cr3494Al195Mo311Ti213Nb649Fe3087,2.025991758995845,8.2006,3.0537,85.27377239131467,0.7862976389705313
48,Ni8921Co11Cr3570Al196Mo307Ti191Nb509Fe3168,2.030666165536484,8.2006,3.1187,85.11191597942295,0.7938436149033485
49,Ni8933Co11Cr3699Al197Mo300Ti203Nb495Fe3181,2.032907466155133,8.2006,3.1836,85.12112115072779,0.7924364081979363
50,Ni8831Co12Cr3746Al197Mo302Ti207Nb564Fe3139,2.0341081580397242,8.2006,3.2486,85.21625512954859,0.7864772667702713
51,Ni8931Co12Cr3895Al201Mo307Ti211Nb521Fe3173,1.9808863158372416,8.2006,3.3136,85.56627582135286,0.7869151968586994
52,Ni8925Co11Cr3886Al199Mo306Ti196Nb486Fe3210,2.0061887158014486,8.2006,3.3785,85.36653220324571,0.7886399486435477
53,Ni8873Co11Cr3907Al205Mo304Ti202Nb546Fe3180,2.0255099452964274,8.2006,3.4435,85.30974724418718,0.7844023093204077
54,Ni8869Co13Cr3849Al200Mo304Ti192Nb510Fe3183,1.94587644689647,8.2006,3.5085,85.78833621091542,0.787753665333045
55,Ni8563Co8Cr3730Al397Mo301Ti338Nb563Fe3048,2.012591157400653,8.2006,3.5735,85.48935362244198,0.7789875070144292
56,Ni8953Co11Cr3873Al201Mo312Ti179Nb472Fe3236,2.023377563148417,8.2006,3.6384,85.23403423183679,0.7896171827331142
57,Ni8892Co10Cr3870Al205Mo317Ti207Nb510Fe3171,2.0322188463035054,8.2006,3.7034,85.22768844561055,0.7865482769373435
58,Ni8962Co9Cr3883Al201Mo306Ti191Nb512Fe3206,2.0344076051231905,8.2006,3.7684,85.19424576950385,0.7876312099242654
59,Ni8976Co7Cr3835Al198Mo306Ti197Nb543Fe3171,2.0358078970043394,8.2006,3.8333,85.19376075681915,0.7871174172370033
60,Ni8929Co11Cr3846Al194Mo301Ti184Nb489Fe3212,2.03310657603755,8.2006,3.8983,85.16771986155426,0.7896669102380494
61,Ni8955Co14Cr3827Al199Mo305Ti192Nb518Fe3196,2.020858877979765,8.2006,3.9633,85.26088241599898,0.7890428507171314
62,Ni8960Co12Cr3791Al202Mo300Ti196Nb496Fe3207,1.9786330290798555,8.2006,4.0283,85.51361688376699,0.7909226148950053
63,Ni8955Co201Cr3772Al236Mo389Ti257Nb485Fe2871,2.0414491017654126,8.21472,4.0932,84.71977026565986,0.812272009352497
64,Ni8892Co199Cr3761Al234Mo385Ti262Nb481Fe2889,2.0058504618021207,8.21472,4.1582,84.97398851923256,0.8117504113699814
65,Ni8849Co187Cr3795Al229Mo369Ti244Nb469Fe2916,2.038054989529128,8.21472,4.2232,84.77423334722405,0.8104714654349566
66,Ni8888Co175Cr3784Al238Mo372Ti239Nb462Fe2939,2.036623389675589,8.21472,4.2882,84.79638121708216,0.8097585408460801
67,Ni8986Co280Cr3804Al246Mo398Ti251Nb377Fe2864,2.0370087662337486,8.21472,4.3531,84.49972336032768,0.8268100180245941
68,Ni8882Co359Cr3765Al269Mo449Ti290Nb426Fe2660,2.014969102303957,8.21472,4.4181,84.58281013645082,0.8309761658716653
69,Ni8879Co350Cr3715Al259Mo446Ti284Nb471Fe2639,2.0032391963652163,8.21472,4.4831,84.69988597861203,0.8289371075186842
70,Ni8799Co303Cr3704Al271Mo428Ti280Nb509Fe2704,2.0268400168285736,8.21472,4.548,84.67584169340144,0.820685627233974
71,Ni8835Co290Cr3825Al252Mo409Ti285Nb479Fe2750,2.0242661889525424,8.21472,4.613,84.70946057792055,0.8197681527178584
72,Ni8833Co332Cr3822Al253Mo423Ti287Nb436Fe2716,2.0197718790615875,8.21472,4.678,84.62285159725589,0.8266569315977174
73,Ni8900Co404Cr3868Al265Mo444Ti280Nb366Fe2651,2.013146194619055,8.21472,4.7429,84.4736219555004,0.8381451233749093
74,Ni8869Co394Cr3721Al271Mo442Ti281Nb382Fe2637,1.9745534585824147,8.21472,4.8079,84.73168697320693,0.8390785535265626
75,Ni8840Co365Cr3937Al258Mo438Ti282Nb427Fe2677,1.9181406442872857,8.21472,4.8729,85.31217879240909,0.8281611995432553
76,Ni8847Co357Cr3955Al262Mo407Ti302Nb386Fe2680,1.9900478316946844,8.21472,4.9379,84.76291399464354,0.830693972200217
77,Ni8836Co375Cr3912Al264Mo449Ti290Nb421Fe2660,1.9397500675715142,8.21472,5.0028,85.13715677843662,0.8295224395049288
78,Ni8840Co422Cr3881Al265Mo452Ti304Nb416Fe2580,1.9836771361540273,8.21472,5.0678,84.71232368490809,0.8363714731556605
79,Ni8852Co419Cr3926Al276Mo468Ti304Nb429Fe2555,1.992874470030713,8.21472,5.1328,84.69504642381307,0.8335350385516891
80,Ni8809Co409Cr3920Al273Mo460Ti319Nb466Fe2559,1.995457640959484,8.21472,5.1978,84.73242713074069,0.8302446883188862
81,Ni8842Co395Cr3917Al271Mo451Ti291Nb441Fe2594,1.9971870285320177,8.21472,5.2627,84.70921817433027,0.8308974305071627
82,Ni8916Co399Cr4016Al267Mo444Ti287Nb388Fe2625,2.0066646919162756,8.21472,5.3277,84.60017763671208,0.8333919479775586
83,Ni8864Co429Cr3989Al275Mo466Ti300Nb412Fe2548,2.027465845773373,8.21472,5.3927,84.43279375621545,0.8346099076916237
84,Ni8867Co448Cr3849Al283Mo483Ti314Nb428Fe2518,2.0458106451483515,8.21472,5.4576,84.24362908198329,0.8380894841194332
85,Ni8843Co428Cr3803Al269Mo464Ti302Nb413Fe2567,2.0215067422550574,8.21472,5.5226,84.41108797150348,0.8383420910879575
86,Ni8873Co440Cr3785Al277Mo471Ti306Nb394Fe2557,2.024188822284717,8.21472,5.5876,84.34426285484689,0.8411438368897152
87,Ni8889Co453Cr3914Al282Mo468Ti294Nb361Fe2563,2.0638321034749856,8.21472,5.6526,84.04971911086669,0.8419370343909724
88,Ni8803Co425Cr3804Al278Mo475Ti329Nb439Fe2531,2.0409730219761375,8.21472,5.7175,84.32545401680979,0.835319326069472
89,Ni8851Co427Cr3813Al277Mo472Ti319Nb423Fe2551,2.0260280893029723,8.21472,5.7825,84.40250901708475,0.8369728832130888
90,Ni8870Co435Cr3558Al273Mo471Ti317Nb425Fe2524,2.0685690058788193,8.21472,5.8475,83.97914603191643,0.8440698811369719
91,Ni8839Co464Cr3668Al284Mo480Ti327Nb408Fe2488,2.0592923626971054,8.21472,5.9124,84.0261018404961,0.8451577948307479
92,Ni8910Co448Cr3614Al276Mo446Ti292Nb355Fe2569,2.052362095497056,8.21472,5.9774,83.98992095827212,0.8501101404999785
93,Ni8665Co421Cr3504Al274Mo503Ti399Nb624Fe2383,2.078608725899847,8.21472,6.0424,84.18314449977959,0.8283207258879932
94,Ni8758Co437Cr3535Al285Mo493Ti346Nb495Fe2464,2.0610679193021615,8.21472,6.1074,84.13397054764593,0.8382051291820027
95,Ni8877Co450Cr3866Al280Mo444Ti306Nb387Fe2540,2.032897788204273,8.21472,6.1723,84.25832146590871,0.8425551521493675
96,Ni8937Co441Cr3959Al277Mo447Ti279Nb333Fe2593,2.0924652598402407,8.21472,6.2373,83.83211590133648,0.8428049471510466
97,Ni8822Co399Cr3997Al269Mo456Ti305Nb452Fe2560,2.090867526613247,8.21472,6.3023,84.09261235309593,0.8286104416668
98,Ni8834Co422Cr3951Al281Mo459Ti329Nb465Fe2514,2.088685669701465,8.21472,6.3673,84.05575209690612,0.8315750636232676
99,Ni8849Co429Cr3976Al274Mo457Ti304Nb416Fe2559,2.053986654144127,8.21472,6.4322,84.24168868873751,0.8348655618317333
100,Ni8932Co442Cr3963Al273Mo453Ti292Nb382Fe2571,2.0609162891716855,8.21472,6.4972,84.10678092971534,0.8398351442149711
101,Ni8901Co455Cr3840Al286Mo470Ti299Nb385Fe2523,2.0506237261857785,8.21472,6.5622,84.12994136430687,0.842707802432231
102,Ni8716Co436Cr3645Al275Mo499Ti378Nb606Fe2371,2.095838209615911,8.21472,6.6271,84.04962848352591,0.8290847334021353
103,Ni8935Co443Cr3876Al279Mo454Ti268Nb316Fe2610,2.091804052859338,8.21472,6.6921,83.79211889793442,0.8453527434609512
104,Ni8752Co435Cr3869Al278Mo489Ti347Nb493Fe2493,2.093360253717183,8.21472,6.7571,84.03813166667413,0.8307196118136214
105,Ni8800Co438Cr3877Al285Mo501Ti343Nb486Fe2466,2.0704400991244887,8.21472,6.822,84.1870978292446,0.8313619359751572
106,Ni8847Co456Cr3820Al284Mo475Ti299Nb393Fe2525,2.0615622958281743,8.21472,6.887,84.06682664834769,0.8418768059783175
107,Ni8864Co456Cr3865Al284Mo469Ti310Nb397Fe2543,2.071025435254569,8.21472,6.952,84.01549946914525,0.8409789841852082
108,Ni8787Co444Cr3769Al272Mo486Ti326Nb477Fe2471,2.060137746130559,8.21472,7.017,84.18057462441472,0.8358955455915961
109,Ni8917Co449Cr3855Al293Mo471Ti319Nb390Fe2518,2.088340845595014,8.21472,7.0819,83.88773451003793,0.8412935816873495
110,Ni8874Co432Cr3896Al278Mo452Ti327Nb393Fe2551,2.088193519495985,8.21472,7.1469,83.93372607019887,0.8387281747080894
111,Ni8874Co425Cr3775Al271Mo468Ti322Nb446Fe2531,2.043330507961851,8.21472,7.2119,84.27992730709069,0.8369985124912056
112,Ni8822Co424Cr3818Al276Mo477Ti332Nb483Fe2516,2.060008891215733,8.21472,7.2769,84.23816547950894,0.8326279388388871
113,Ni8864Co432Cr3992Al275Mo450Ti286Nb361Fe2574,2.072924735022566,8.21472,7.3418,84.04500833868349,0.8385143664367385
114,Ni8721Co430Cr3861Al514Mo453Ti341Nb450Fe2487,2.0076129579099504,8.21472,7.4068,84.64612058371894,0.8302940399997756
115,Ni8835Co439Cr3966Al275Mo473Ti295Nb388Fe2551,1.9829195694337527,8.21472,7.4718,84.70800161245333,0.836948312526446
116,Ni8806Co482Cr3827Al286Mo501Ti361Nb469Fe2397,2.0128392231420364,8.22884,7.5367,84.4344040184224,0.8405799874606984
117,Ni8856Co640Cr3916Al317Mo538Ti362Nb338Fe2246,2.0208347573228083,8.22884,7.6017,83.9823438823698,0.863819273110668
118,Ni8886Co662Cr3891Al319Mo542Ti345Nb304Fe2232,1.9820908113839482,8.22884,7.6667,84.17184811799898,0.8693328532072525
119,Ni8836Co668Cr3995Al359Mo555Ti383Nb333Fe2203,2.056728789046245,8.22884,7.7317,83.72372206252041,0.8637397010324509
120,Ni8816Co710Cr3986Al324Mo586Ti414Nb347Fe2090,2.061114250246958,8.22884,7.7966,83.62849546981849,0.867423380589959
121,Ni8954Co712Cr4104Al335Mo532Ti339Nb271Fe2197,2.074659332302389,8.22884,7.8616,83.42909143594215,0.8732668368665727
122,Ni8870Co726Cr4028Al320Mo563Ti375Nb307Fe2123,2.0933856402301276,8.22884,7.9266,83.30529072085486,0.8725488570575379
123,Ni8824Co708Cr3993Al331Mo577Ti389Nb340Fe2121,2.053635433052874,8.22884,7.9915,83.67624500401998,0.8678028100260473
124,Ni8803Co712Cr3927Al327Mo573Ti402Nb360Fe2105,2.0967806595097835,8.22884,8.0565,83.34753977599964,0.8687179232860278
125,Ni8949Co738Cr4064Al326Mo545Ti346Nb275Fe2164,2.109472537304583,8.22884,8.1215,83.11875163645257,0.876521760064659
126,Ni8731Co724Cr3789Al331Mo615Ti442Nb459Fe1989,2.1207725861699775,8.22884,8.1865,83.24117545073952,0.8649115163685627
127,Ni8886Co751Cr3868Al330Mo559Ti372Nb292Fe2107,2.0811844096655476,8.22884,8.2514,83.25465732374423,0.8805856608018108
128,Ni8879Co747Cr3814Al338Mo576Ti402Nb346Fe2071,2.1286587251783367,8.22884,8.3164,82.97090611097734,0.8769849587271603
129,Ni8870Co753Cr3892Al339Mo579Ti375Nb282Fe2086,2.0876052759274475,8.22884,8.3814,83.22657141077514,0.8794934720045084
130,Ni8734Co776Cr3642Al340Mo625Ti453Nb382Fe1956,2.1297265298736177,8.22884,8.4464,82.93378824388839,0.8786462765312705
131,Ni8877Co793Cr3996Al351Mo595Ti400Nb297Fe2023,2.083515128601571,8.22884,8.5113,83.24777843685655,0.8799971759736005
132,Ni8858Co781Cr3965Al349Mo611Ti412Nb329Fe2004,2.1227623641488216,8.22884,8.5763,83.02438590073601,0.8763854986927183
133,Ni8768Co760Cr3875Al327Mo602Ti420Nb370Fe2005,2.125109357861074,8.22884,8.6413,83.05638844925812,0.8736041242837755
134,Ni8842Co788Cr3951Al331Mo586Ti404Nb328Fe2012,2.1292489352041937,8.22884,8.7062,82.92733792453892,0.8792086505991126
135,Ni8785Co793Cr4027Al338Mo600Ti414Nb307Fe1983,2.086990035874245,8.22884,8.7712,83.25766805123018,0.8779627573499413
136,Ni8919Co825Cr4044Al358Mo607Ti396Nb257Fe1975,2.1117379426248037,8.22884,8.8362,82.95452978018162,0.8849467469850323
137,Ni8807Co818Cr3981Al347Mo620Ti412Nb323Fe1972,2.1182026815253887,8.22884,8.9012,82.995799242596,0.8798978144672626
138,Ni8776Co815Cr4005Al347Mo628Ti445Nb329Fe1945,2.117132361120108,8.22884,8.9661,83.0391500056182,0.877876159276792
139,Ni8910Co824Cr3974Al347Mo590Ti380Nb257Fe2017,2.1068183124351396,8.22884,9.0311,82.94819568485951,0.8873756238252682
140,Ni8868Co816Cr3995Al350Mo599Ti380Nb264Fe2009,2.0876591261038566,8.22884,9.0961,83.13709674290386,0.8846232153702598
141,Ni8822Co810Cr4032Al342Mo602Ti441Nb328Fe1972,2.0898865477806265,8.22884,9.161,83.2251365577977,0.8786159320308539
142,Ni8888Co823Cr4042Al350Mo589Ti386Nb276Fe2006,2.1284703808910086,8.22884,9.226,82.84379942740728,0.8842654685477412
143,Ni8884Co812Cr3956Al340Mo615Ti398Nb319Fe1989,2.129785428192059,8.22884,9.291,82.88887964505743,0.8811651735293371
144,Ni8821Co842Cr3870Al355Mo642Ti447Nb302Fe1913,2.0840121350719634,8.22884,9.356,83.145312114771,0.8856971487256136
145,Ni8975Co878Cr3685Al351Mo575Ti328Nb196Fe2002,2.105978325219578,8.22884,9.4209,82.61736915141879,0.9067056626213342
146,Ni8845Co817Cr3795Al353Mo607Ti388Nb275Fe1996,2.063230261797823,8.22884,9.4859,83.25317869837768,0.8883345629763667
147,Ni8755Co810Cr3752Al349Mo634Ti453Nb360Fe1923,2.1017349178747184,8.22884,9.5509,83.09486099986282,0.881116479632358
148,Ni8834Co823Cr3691Al345Mo606Ti400Nb304Fe1986,2.0481484471119162,8.22884,9.6158,83.33704871940976,0.8899597751907605
149,Ni8873Co818Cr3982Al339Mo593Ti371Nb239Fe2045,2.1034205529125853,8.22884,9.6808,82.97975368218543,0.8870006486777865
150,Ni8713Co800Cr3850Al340Mo653Ti462Nb421Fe1905,2.056394671315077,8.22884,9.7458,83.57248062623555,0.872672457792472
151,Ni8938Co838Cr3877Al348Mo575Ti402Nb246Fe1998,2.0511410703241157,8.22884,9.8108,83.25720918324318,0.8933342846679777
152,Ni8845Co837Cr4056Al357Mo610Ti413Nb297Fe1958,2.0877310605795842,8.22884,9.8757,83.16842162999495,0.8827883121719492
153,Ni8787Co822Cr4003Al342Mo621Ti437Nb350Fe1922,2.111488947425701,8.22884,9.9407,83.07185857514737,0.8783573648877492
154,Ni8905Co846Cr3952Al348Mo598Ti375Nb248Fe1995,2.097037864681655,8.22884,10.0057,82.96220766729826,0.8907088152334154
155,Ni8841Co833Cr4007Al356Mo618Ti425Nb304Fe1939,2.01043590313644,8.22884,10.0707,83.73739434655934,0.8828162171176303
156,Ni8769Co808Cr3958Al347Mo635Ti456Nb345Fe1930,2.0829375629001556,8.22884,10.1356,83.30623003476713,0.8768714556393457
157,Ni8888Co826Cr4086Al343Mo615Ti403Nb273Fe1996,2.101613353225024,8.22884,10.2006,83.0745384180792,0.8823313179163398
158,Ni8866Co816Cr4083Al343Mo603Ti407Nb305Fe1983,2.1012746441673085,8.22884,10.2656,83.11897483681945,0.8799286343573498
159,Ni8835Co844Cr4188Al348Mo616Ti431Nb310Fe1931,2.1005846114010334,8.22884,10.3305,83.13201403099933,0.8794709351331405
160,Ni8901Co823Cr3832Al354Mo590Ti402Nb266Fe1983,2.1005263594542125,8.22884,10.3955,82.94528640793418,0.8902006614774174
161,Ni8859Co833Cr3609Al354Mo625Ti437Nb306Fe1936,2.1000481719896302,8.22884,10.4605,82.9152508768653,0.8921279812245982
162,Ni8827Co824Cr3502Al352Mo592Ti428Nb300Fe1957,2.0996638311188374,8.22884,10.5255,82.85389924971722,0.8958166372525795
163,Ni8782Co826Cr3601Al344Mo649Ti439Nb356Fe1900,2.099308234991458,8.22884,10.5904,83.0147111752271,0.8867318658563902
164,Ni8899Co829Cr3582Al344Mo597Ti390Nb272Fe1960,2.0975902089936747,8.22884,10.6554,82.85024068173928,0.8969127348279908
165,Ni8775Co823Cr3659Al338Mo624Ti404Nb320Fe1952,2.096382291736791,8.22884,10.7204,83.00578631161575,0.8884823476988646
166,Ni8841Co817Cr3656Al344Mo613Ti455Nb359Fe1913,2.0586492231474454,8.22884,10.7853,83.3147594626799,0.8867196316504153
167,Ni8899Co837Cr3790Al349Mo597Ti370Nb237Fe1996,2.064520701635916,8.24296,10.8503,83.11191369056313,0.8960052013295078
168,Ni8793Co919Cr3970Al361Mo656Ti458Nb303Fe1799,2.057806905212242,8.24296,10.9153,83.20672221927352,0.8933882234254167
169,Ni8939Co1022Cr3998Al381Mo668Ti416Nb198Fe1729,2.111005559487456,8.24296,10.9803,82.48606705446662,0.9120809286027083